
 Primary working directories    : /home/sstraight/tmp
 Secondary working directories  : /home/sstraight/tmp
 Wavefunction directory         : /home/sstraight/wfu/
 Main file repository           : /home/sstraight/tmp/

 SHA1      : 41aa48e1468dac041f2eaabdf410f3ce2ee7f8bf
 NAME      : 2015.1.0
 ARCHNAME  : linux/x86_64
 FC        : /opt/intel/composer_xe_2015.1.133/bin/intel64/ifort
 BLASLIB   : -Wl,-_start-group /opt/intel/mkl/lib/intel64/libmkl_intel_ilp64.a /opt/intel/mkl/lib/intel64/libmkl_sequential.a /opt/intel/mkl/lib/intel64/libmkl_core.a -Wl,-_end-group
 id        : vbabin

 Nodes     nprocs
 mill         8

 Using customized tuning parameters: mindgm=1; mindgv=20; mindgc=4; mindgr=1; noblas=0; minvec=7
 default implementation of scratch files=sf  

 memory, 32,M
 
 geomtyp=xyz
 geometry={
 3
 h2o geometry taken from hydronium
  O   -0.0000348200   -0.0000015400   -0.0823037200
  H    0.4651268700    0.8117667800    0.2194445200
  H    0.4707170800   -0.8085316900    0.2194487400
 }
 
 basis
 default=avdz
 end
 
 CHARGE = 0, SPIN = 0
 hf
 mp2
 
 e_H2O_b3lyp_avqz = energy
 optg;coord,3n
 {frequencies
 thermo,sym=c2v
 print,thermo}

 Variables initialized (889), CPU time= 0.07 sec
 Commands  initialized (702), CPU time= 0.03 sec, 572 directives.
 Default parameters read. Elapsed time= 0.33 sec

 Checking input...
 Passed
1


                                         ***  PROGRAM SYSTEM MOLPRO  ***
                                       Copyright, TTI GmbH Stuttgart, 2015
                                    Version 2015.1 linked Nov 13 2015 17:13:29


 **********************************************************************************************************************************
 LABEL *                                                                                 
  64 bit mpp version                                                                     DATE: 12-Aug-16          TIME: 15:14:50  
 **********************************************************************************************************************************

 SHA1:             41aa48e1468dac041f2eaabdf410f3ce2ee7f8bf
 **********************************************************************************************************************************
 SETTING GEOMTYP        =    XYZ

 Variable memory set to   32000000 words,  buffer space   230000 words

 SETTING BASIS          =    AVDZ
 SETTING CHARGE         =     0.00000000D+00                                  
 SETTING SPIN           =     0.00000000D+00                                  


 Recomputing integrals since basis changed


 Using spherical harmonics

 Library entry O      S aug-cc-pVDZ          selected for orbital group  1
 Library entry O      P aug-cc-pVDZ          selected for orbital group  1
 Library entry O      D aug-cc-pVDZ          selected for orbital group  1
 Library entry H      S aug-cc-pVDZ          selected for orbital group  2
 Library entry H      P aug-cc-pVDZ          selected for orbital group  2

1PROGRAM * SEWARD (Integral evaluation for generally contracted gaussian basis sets)     Author: Roland Lindh, 1990

 Geometry written to block  1 of record 700


 Point group  C1  



 ATOMIC COORDINATES

 NR  ATOM    CHARGE       X              Y              Z

   1  O       8.00   -0.000065800   -0.000002910   -0.155531490
   2  H       1.00    0.878962397    1.534016891    0.414690042
   3  H       1.00    0.889526363   -1.527903457    0.414698017

 Bond lengths in Bohr (Angstrom)

 1-2  1.857702861  1-3  1.857691037
     ( 0.983054019)     ( 0.983047762)

 Bond angles

  2-1-3  110.99919189

 NUCLEAR CHARGE:                   10
 NUMBER OF PRIMITIVE AOS:          59
 NUMBER OF SYMMETRY AOS:           57
 NUMBER OF CONTRACTIONS:           41   (  41A   )
 NUMBER OF CORE ORBITALS:           1   (   1A   )
 NUMBER OF VALENCE ORBITALS:        6   (   6A   )


 NUCLEAR REPULSION ENERGY    8.93940540

 Eigenvalues of metric

         1 0.304E-02 0.358E-02 0.119E-01 0.165E-01 0.288E-01 0.390E-01 0.817E-01 0.922E-01


 Contracted 2-electron integrals neglected if value below      1.0D-11
 AO integral compression algorithm  1   Integral accuracy      1.0D-11

     3.932 MB (compressed) written to integral file ( 67.7%)

     Node minimum: 0.262 MB, node maximum: 0.524 MB


 NUMBER OF SORTED TWO-ELECTRON INTEGRALS:      46224.     BUFFER LENGTH:  32768
 NUMBER OF SEGMENTS:   1  SEGMENT LENGTH:      46224      RECORD LENGTH: 524288

 Memory used in sort:       0.60 MW

 SORT1 READ      525861. AND WROTE       41805. INTEGRALS IN      1 RECORDS. CPU TIME:     0.02 SEC, REAL TIME:     0.04 SEC
 SORT2 READ      335869. AND WROTE      371091. INTEGRALS IN     16 RECORDS. CPU TIME:     0.00 SEC, REAL TIME:     0.01 SEC

 Node minimum:       46010.  Node maximum:       46764. integrals

 OPERATOR DM      FOR CENTER  0  COORDINATES:    0.000000    0.000000    0.000000


 **********************************************************************************************************************************
 DATASETS  * FILE   NREC   LENGTH (MB)   RECORD NAMES
              1      18       16.47       500      610      700      900      950      970     1000      129      960     1100   
                                          VAR    BASINP    GEOM    SYMINP    ZMAT    AOBASIS   BASIS     P2S    ABASIS      S 
                                         1400     1410     1200     1210     1080     1600     1650     1700   
                                           T        V       H0       H01     AOSYM     SMH    MOLCAS    OPER   

 PROGRAMS   *        TOTAL       INT
 CPU TIMES  *         0.64      0.16
 REAL TIME  *         0.92 SEC
 DISK USED  *        35.40 MB      
 GA USED    *         0.00 MB       (max)       0.00 MB       (current)
 **********************************************************************************************************************************

1PROGRAM * RHF-SCF (CLOSED SHELL)       Authors: W. Meyer, H.-J. Werner


 NUMBER OF ELECTRONS:       5+    5-    SPACE SYMMETRY=1    SPIN SYMMETRY: Singlet 
 CONVERGENCE THRESHOLDS:    1.00E-06 (Density)    1.00E-07 (Energy)
 MAX. NUMBER OF ITERATIONS:       60
 INTERPOLATION TYPE:            DIIS
 INTERPOLATION STEPS:              2 (START)      1 (STEP)
 LEVEL SHIFTS:                  0.00 (CLOSED)  0.00 (OPEN) 



 Orbital guess generated from atomic densities. Full valence occupancy:    7

 Molecular orbital dump at record        2100.2

 Initial occupancy:   5

 ITERATION    DDIFF          GRAD             ENERGY        2-EL.EN.            DIPOLE MOMENTS         DIIS   ORB.
    1      0.000D+00      0.000D+00       -76.00106907     77.226808    0.91955    0.00318    0.59295    0    start
    2      0.000D+00      0.153D-01       -76.02681084     73.645038    0.54649    0.00189    0.35239    1    diag
    3      0.256D-01      0.927D-02       -76.03748130     75.217559    0.63713    0.00220    0.41084    2    diag
    4      0.926D-02      0.912D-03       -76.03767551     75.107802    0.63221    0.00219    0.40767    3    diag
    5      0.141D-02      0.237D-03       -76.03769236     75.121483    0.63110    0.00218    0.40695    4    diag
    6      0.405D-03      0.433D-04       -76.03769330     75.122065    0.63092    0.00218    0.40683    5    diag
    7      0.873D-04      0.816D-05       -76.03769334     75.121927    0.63076    0.00218    0.40673    6    diag
    8      0.196D-04      0.153D-05       -76.03769335     75.121950    0.63072    0.00218    0.40671    7    diag
    9      0.318D-05      0.210D-06       -76.03769335     75.121941    0.63072    0.00218    0.40670    8    diag
   10      0.382D-06      0.562D-07       -76.03769335     75.121946    0.63072    0.00218    0.40670    0    orth

 Final occupancy:   5

 !RHF STATE 1.1 Energy                -76.037693345191
 Nuclear energy                         8.93940540
 One-electron energy                 -122.53807164
 Two-electron energy                   37.56097289
 Virial quotient                       -1.00287035
 !RHF STATE 1.1 Dipole moment           0.63072048     0.00218131     0.40670448
 Dipole moment /Debye                   1.60302657     0.00554397     1.03367198

 Orbital energies:

         1.1          2.1          3.1          4.1          5.1          6.1          7.1
    -20.578302    -1.339350    -0.716918    -0.568156    -0.505337     0.035449     0.057204

 HOMO      5.1    -0.505337 =     -13.7509eV
 LUMO      6.1     0.035449 =       0.9646eV
 LUMO-HOMO         0.540787 =      14.7156eV


 **********************************************************************************************************************************
 DATASETS  * FILE   NREC   LENGTH (MB)   RECORD NAMES
              1      18       16.47       500      610      700      900      950      970     1000      129      960     1100   
                                          VAR    BASINP    GEOM    SYMINP    ZMAT    AOBASIS   BASIS     P2S    ABASIS      S 
                                         1400     1410     1200     1210     1080     1600     1650     1700   
                                           T        V       H0       H01     AOSYM     SMH    MOLCAS    OPER   

              2       4        0.43       700     1000      520     2100   
                                         GEOM     BASIS   MCVARS     RHF  

 PROGRAMS   *        TOTAL        HF       INT
 CPU TIMES  *         0.68      0.04      0.16
 REAL TIME  *         0.96 SEC
 DISK USED  *       171.91 MB      
 SF USED    *         0.01 MB      
 GA USED    *         0.00 MB       (max)       0.00 MB       (current)
 **********************************************************************************************************************************


1PROGRAM * MP2 (Closed-shell)     Authors: C. Hampel, H.-J. Werner, 1991, M. Deegan, P.J. Knowles, 1992


 Convergence thresholds:  THRVAR = 1.00D-12  THRDEN = 1.00D-08

 Number of core orbitals:           1 (   1 )
 Number of closed-shell orbitals:   4 (   4 )
 Number of external orbitals:      36 (  36 )

 Molecular orbitals read from record     2100.2  Type=RHF/CANONICAL (state 1.1)

 Number of N-1 electron functions:               4
 Number of N-2 electron functions:              10
 Number of singly external CSFs:               144
 Number of doubly external CSFs:             10440
 Total number of CSFs:                       10585

 Length of J-op  integral file:               0.00 MB
 Length of K-op  integral file:               0.12 MB

 Integral transformation finished. Total CPU:   0.00 sec, npass=  1  Memory used:   0.12 MW

 Memory needed for MP2:                      0.01 MW

 SCS-MP2 correlation energy:           -0.216786750418   (PS=  1.200000  PT=  0.333333)
 SCS-MP2 total energy:                -76.254480095609


  Reference energy                    -76.037693345191
  MP2 singlet pair energy              -0.136900913214
  MP2 triplet pair energy              -0.084384087688
  MP2 correlation energy               -0.221285000902

 !MP2 total energy                    -76.258978346093

 KEXT needed  1 integral passes. Memory used:   0.08 MW  CPU time:      0.01 sec


 Starting Coupled-perturbed Hartree-Fock, convergence threshold= 1.0D-06

 ITER   MIC  DIIS      VAR         VARC       CPU
   1     0     1    0.30D-01    0.49D-03     0.01
   2     5     2    0.28D-03    0.10D-03     0.01
   3     3     3    0.83D-05    0.38D-06     0.01
   4     3     4    0.90D-07    0.30D-07     0.01

 CPHF convergence reached in  4 macroiterations and   11 microiterations.   Accuracy: 9.0166D-08

 CPHF solution written to record  4101.2

 Dipole moments (unrelaxed):            0.61831316     0.00213827     0.39870392
 Orbital relaxation contribution:      -0.03003417    -0.00010373    -0.01936679
 !!MP2 STATE 1.1 Dipole moment          0.58827899     0.00203454     0.37933713
 Dipole moment /Debye                   1.49515810     0.00517096     0.96411567
 
 CPU-time for density and lagrangian:                  0.00 sec
 CPU-time for coupled-perturbed hartree-fock:          0.01 sec

 MP2 Gradient info saved on record         5200.1


 **********************************************************************************************************************************
 DATASETS  * FILE   NREC   LENGTH (MB)   RECORD NAMES
              1      20       16.85       500      610      700      900      950      970     1000      129      960     1100   
                                          VAR    BASINP    GEOM    SYMINP    ZMAT    AOBASIS   BASIS     P2S    ABASIS      S 
                                         1400     1410     1200     1210     1080     1600     1650     1700     1380     5200   
                                           T        V       H0       H01     AOSYM     SMH    MOLCAS    OPER     JKOP      MP2  

              2       6        0.50       700     1000      520     2100     4100     4101   
                                         GEOM     BASIS   MCVARS     RHF     CPHF     CPHF   

 PROGRAMS   *        TOTAL       MP2        HF       INT
 CPU TIMES  *         0.78      0.10      0.04      0.16
 REAL TIME  *         1.08 SEC
 DISK USED  *       174.66 MB      
 SF USED    *         0.87 MB      
 GA USED    *         0.00 MB       (max)       0.00 MB       (current)
 **********************************************************************************************************************************
 SETTING E_H2O_B3LYP_AVQZ                =     -76.25897835  AU                              


 PROGRAM * OPT (Geometry optimization)     Authors: F. Eckert and H.-J. Werner


 BFGS update of hessian

 *** Long output written to logfile /home/sstraight/projects/h3o/1B_training_set/training_set_builder/test_case_h2o/output.log ***


 Geometry optimization using default procedure for command MP2

 Geometry written to block  1 of record 700

 Making model hessian for cartesian coordinates

 Entering Rational Function Geometry Optimization

 ITER.   ENERGY(OLD)    ENERGY(NEW)      DE          GRADMAX     GRADNORM    GRADRMS     STEPMAX     STEPLEN     STEPRMS   CPU-time
   1   -76.25897835   -76.26081584    -0.00183749  0.02367135  0.03178563  0.01059521  0.11092588  0.11241425  0.06490240      0.58
   2   -76.26081584   -76.26090936    -0.00009353  0.00553398  0.00633816  0.00211272  0.03232209  0.03240986  0.01871184      1.21
   3   -76.26090936   -76.26090971    -0.00000035  0.00080843  0.00081190  0.00027063  0.00060008  0.00082633  0.00047708      1.89
   4   -76.26090971   -76.26090977    -0.00000005  0.00029646  0.00029701  0.00009900  0.00034116  0.00041526  0.00023975      2.55

 END OF GEOMETRY OPTIMIZATION.

 Current geometry (xyz format, in Angstrom)

    3
 MP2/AVDZ  ENERGY=-76.26090977
 O         -0.0217263748       -0.0000742954       -0.0962909768
 H          0.4761432851        0.7621527560        0.2264378511
 H          0.4813922197       -0.7588449105        0.2264426658

 **********************************************************************************************************************************

 Geometry written to block  1 of record 700


 **********************************************************************************************************************************
 DATASETS  * FILE   NREC   LENGTH (MB)   RECORD NAMES
              1      20       16.85       500      610      700      900      950      970     1000      129      960     1100   
                                          VAR    BASINP    GEOM    SYMINP    ZMAT    AOBASIS   BASIS     P2S    ABASIS      S 
                                         1400     1410     1200     1210     1080     1600     1650     1700     1380     5200   
                                           T        V       H0       H01     AOSYM     SMH    MOLCAS    OPER     JKOP      MP2  

              2       7        0.51       700     1000      520     2100     4100     4101     9001   
                                         GEOM     BASIS   MCVARS     RHF     CPHF     CPHF    DEN_MP2    

 PROGRAMS   *        TOTAL      OPTG       MP2        HF       INT
 CPU TIMES  *         3.35      2.56      0.10      0.04      0.16
 REAL TIME  *         4.24 SEC
 DISK USED  *       174.73 MB      
 SF USED    *         0.87 MB      
 GA USED    *         0.00 MB       (max)       0.00 MB       (current)
 **********************************************************************************************************************************


 PROGRAM * HESSIAN

 Computing numerical hessian using default procedure for command MP2

 Using no symmetry in wavefunction calculations

 Running default procedure: HF-SCF000  MP2
 

 Numerically approximating hessian using central gradient differences

 Task list generated. Total number of displacements:     18

    5 tasks completed, CPU=3s Elapsed=3s
   10 tasks completed, CPU=7s Elapsed=7s
   15 tasks completed, CPU=11s Elapsed=11s

 Numerical MP2 hessian completed. CPU-time:    13.90 sec, Elapsed:    13.96 sec

 MP2 hessian saved to record  5300.2

 FREQUENCIES * CALCULATION OF HARMONIC VIBRATIONAL SPECTRA FOR MP2


 Permanent Dipole Moment [debye]
   1-  3    1.579441    0.005454    1.018463

 Dipole Moment Norm    1.8793433 [debye]

 Dipole Moment Derivatives [debye/ang]
                   1             2             3             4             5             6             7             8
         1    -2.0675903     0.0013844     0.7016189     1.0355687    -0.2910297    -0.3503175     1.0320036     0.2896448
         2     0.0013851    -2.4682473     0.0024205    -0.2268947     1.2323479    -0.1470739     0.2255096     1.2359154
         3     0.7016484     0.0024207    -2.7032462    -0.3501830    -0.1884290     1.3516283    -0.3514768     0.1860080
                   9
         1    -0.3513261
         2     0.1446533
         3     1.3516262

 Projecting out rotations and translations

   Low Vibration      Wavenumber
        Nr             [1/cm] 
        1                0.00
        2                0.00
        3                0.00
        4                0.00
        5                0.00
        6                0.00

     Vibration        Wavenumber
        Nr             [1/cm] 
        1             1621.99
        2             3803.09
        3             3937.30

 FREQUENCIES * CALCULATION OF NORMAL MODES FOR MP2


 Atomic Coordinates

  Nr  Atom  Charge       X              Y              Z

   1   O     8.00   -0.041056898   -0.000140398   -0.181963574
   2   H     1.00    0.899780405    1.440259974    0.427905523
   3   H     1.00    0.909699454   -1.434009052    0.427914621

 Frequencies dumped to record   5400.2

 Gradient norm at reference geometry: 0.29701D-03
 
 Molecule is not in standard orientation!
 Symmetry information for normal modes not available!

 Normal Modes

                              1 A         2 A         3 A  
 Wavenumbers [cm-1]         1621.99     3803.09     3937.30
 Intensities [km/mol]         67.45        4.14       67.01
 Intensities [relative]      100.00        6.14       99.35
           GX1             -0.05695    -0.04119     0.00023
           GY1             -0.00020    -0.00014    -0.06729
           GZ1             -0.03672    -0.02656    -0.00000
           GX2              0.45344     0.32491     0.34963
           GY2             -0.41116     0.57184     0.53528
           GZ2              0.29147     0.21078     0.22664
           GX3              0.45059     0.32886    -0.35331
           GY3              0.41429    -0.56959     0.53284
           GZ3              0.29147     0.21079    -0.22664


 Normal Modes of low/zero frequencies

                                  1           2           3           4           5
 Wavenumbers [cm-1]            0.00        0.00        0.00        0.00        0.00
 Intensities [km/mol]          0.00        0.00        0.00        0.00        0.00
 Intensities [relative]        0.00        0.00        0.00        0.00        0.00
           GX1              0.07714     0.21698    -0.06249    -0.00899     0.02054
           GY1              0.16250    -0.01078     0.12206    -0.02542    -0.12411
           GZ1             -0.09741     0.06404     0.15720     0.08267    -0.01753
           GX2             -0.31172     0.37163     0.12703    -0.23334    -0.40417
           GY2              0.24103    -0.10922     0.00079    -0.14278     0.00236
           GZ2              0.31700     0.05795     0.15125     0.70597     0.33897
           GX3              0.10649     0.11099     0.16642    -0.37302     0.49829
           GY3              0.24247    -0.11012     0.00093    -0.14326     0.00547
           GZ3              0.04487    -0.00428    -0.48445     0.37311    -0.45767

                                  6
 Wavenumbers [cm-1]            0.00
 Intensities [km/mol]          0.00
 Intensities [relative]        0.00
           GX1              0.01111
           GY1             -0.02248
           GZ1              0.12250
           GX2             -0.29915
           GY2              0.34515
           GZ2             -0.26714
           GX3              0.34253
           GY3              0.34737
           GZ3              0.47536


 FREQUENCIES * CALCULATION OF THERMODYNAMICAL PROPERTIES

 Temperature   298.150 [K]  Pressure   1.00000 [atm]
 Atom  1: O         Mass  15.99940
 Atom  2: H         Mass   1.00794
 Atom  3: H         Mass   1.00794

 Molecular Mass:    18.01528 [a.u.]
 Moments of Inertia           6.43096     4.16356     2.26740 [a.u.]
 Point Group C2V   Order of principal axis 2
 Rotational Symmetry factor  2.0
 Rotational Temperatures     13.46799    20.80242    38.19884 [K]
 Rotational Constants       280.62898   433.45465   795.93913 [GHz]

 Vibrational Temperatures [K]   2333.67  5471.77  5664.87

 Zero-Point vibrational Energy       56.000 [kJ/Mol]
                                     13.384 [kcal/Mol]

 Electronic Energy at 0 [K]:                       -76.260910 [H]
 Electronic Energy + Zero-Point correction:        -76.239581 [H]
 Electronic Energy at     298.150 [K]:             -76.236745 [H]
 Enthalpy H at            298.150 [K]:             -76.235801 [H]
 Free Enthalpy G at       298.150 [K]:             -76.257240 [H]

 Partition Function  Z                 log10(Z)          ln(Z)
 Electronic      0.100000D+01          0.000000          0.000000
 Translation     0.300561D+07          6.477932         14.915989
 Rotation        0.441026D+02          1.644464          3.786518
 Vibration       0.100040D+01          0.000173          0.000399
 Total           0.132608D+09          8.122569         18.702507

                       H(T)-H(0)              Cv                 S
                       [kJ/Mol]          [J/Mol K]          [J/Mol K] 
 Electronic               0.000              0.000              0.000
 Translation              3.718             12.472            144.805
 Rotation                 3.718             12.472             43.955
 Vibration                0.008              0.203              0.029
 Volume (RT)              2.479              0.000              0.000
 Total                    9.924             25.147            188.790

 Thermal energies including ZPE:

 H(T)-E(0)               65.923 kJ/Mol
 U(T)-E(0)               63.444 kJ/Mol

                       H(T)-H(0)              Cv                 S
                       [kcal/Mol]        [cal/Mol K]        [cal/Mol K] 
 Electronic               0.000              0.000              0.000
 Translation              0.889              2.981             34.609
 Rotation                 0.889              2.981             10.505
 Vibration                0.002              0.049              0.007
 Volume (RT)              0.592              0.000              0.000
 Total                    2.372              6.010             45.122

 Thermal energies including ZPE:

 H(T)-E(0)               15.756 kcal/Mol
 U(T)-E(0)               15.164 kcal/Mol
 Frequency information read from record  5400.2

 MP2/aug-cc-pVDZ energy=    -76.260909765638

       OPTG(MP2)        MP2             HF-SCF  
    -76.26090977    -76.25897835    -76.03769335
 **********************************************************************************************************************************
 Variable memory released
