
 Primary working directories    : /home/sstraight/tmp
 Secondary working directories  : /home/sstraight/tmp
 Wavefunction directory         : /home/sstraight/wfu/
 Main file repository           : /home/sstraight/tmp/

 SHA1      : 41aa48e1468dac041f2eaabdf410f3ce2ee7f8bf
 NAME      : 2015.1.0
 ARCHNAME  : linux/x86_64
 FC        : /opt/intel/composer_xe_2015.1.133/bin/intel64/ifort
 BLASLIB   : -Wl,-_start-group /opt/intel/mkl/lib/intel64/libmkl_intel_ilp64.a /opt/intel/mkl/lib/intel64/libmkl_sequential.a /opt/intel/mkl/lib/intel64/libmkl_core.a -Wl,-_end-group
 id        : vbabin

 Nodes     nprocs
 mill         8

 Using customized tuning parameters: mindgm=1; mindgv=20; mindgc=4; mindgr=1; noblas=0; minvec=7
 default implementation of scratch files=sf  

 memory, 32,M
 
 geomtyp=xyz
 geometry={
 4
 nitrate anion geometry taken from hydronium
  O   -0.0000348200   -0.0000015400   -0.0823037200
  O    0.4651268700    0.8117667800    0.2194445200
  O    0.4707170800   -0.8085316900    0.2194487400
  N   -0.9355654200   -0.0032228000    0.2195364800
 }
 
 basis
 default=avdz
 end
 
 CHARGE = -1, SPIN = 0
 hf
 mp2
 
 e_H2O_b3lyp_avqz = energy
 optg;coord,3n
 {frequencies
 thermo,sym=c2v
 print,thermo}

 Variables initialized (889), CPU time= 0.06 sec
 Commands  initialized (702), CPU time= 0.05 sec, 572 directives.
 Default parameters read. Elapsed time= 0.33 sec

 Checking input...
 Passed
1


                                         ***  PROGRAM SYSTEM MOLPRO  ***
                                       Copyright, TTI GmbH Stuttgart, 2015
                                    Version 2015.1 linked Nov 13 2015 17:13:29


 **********************************************************************************************************************************
 LABEL *                                                                                 
  64 bit mpp version                                                                     DATE: 12-Aug-16          TIME: 16:07:17  
 **********************************************************************************************************************************

 SHA1:             41aa48e1468dac041f2eaabdf410f3ce2ee7f8bf
 **********************************************************************************************************************************
 SETTING GEOMTYP        =    XYZ

 Variable memory set to   32000000 words,  buffer space   230000 words

 SETTING BASIS          =    AVDZ
 SETTING CHARGE         =        -1.00000000                                  
 SETTING SPIN           =     0.00000000D+00                                  


 Recomputing integrals since basis changed


 Using spherical harmonics

 Library entry O      S aug-cc-pVDZ          selected for orbital group  1
 Library entry O      P aug-cc-pVDZ          selected for orbital group  1
 Library entry O      D aug-cc-pVDZ          selected for orbital group  1
 Library entry N      S aug-cc-pVDZ          selected for orbital group  2
 Library entry N      P aug-cc-pVDZ          selected for orbital group  2
 Library entry N      D aug-cc-pVDZ          selected for orbital group  2

1PROGRAM * SEWARD (Integral evaluation for generally contracted gaussian basis sets)     Author: Roland Lindh, 1990

 Geometry written to block  1 of record 700


 Point group  C1  



 ATOMIC COORDINATES

 NR  ATOM    CHARGE       X              Y              Z

   1  O       8.00   -0.000065800   -0.000002910   -0.155531490
   2  O       8.00    0.878962397    1.534016891    0.414690042
   3  O       8.00    0.889526363   -1.527903457    0.414698017
   4  N       7.00   -1.767962415   -0.006090209    0.414863822

 Bond lengths in Bohr (Angstrom)

 1-2  1.857702861  1-3  1.857691037  1-4  1.857645367  2-3  3.061938572  2-4  3.062375039
     ( 0.983054019)     ( 0.983047762)     ( 0.983023594)     ( 1.620308113)     ( 1.620539082)

 3-4  3.062378520
     ( 1.620540924)

 Bond angles

  1-2-3   34.50027874   1-2-4   34.48688468   1-3-2   34.50052937   1-3-4   34.48664970

  1-4-2   34.48810285   1-4-3   34.48761734   2-1-3  110.99919189   2-1-4  111.02501247

  2-3-4   60.00467698   2-4-3   59.99053321   3-1-4  111.02573296   3-2-4   60.00478981

 NUCLEAR CHARGE:                   31
 NUMBER OF PRIMITIVE AOS:         148
 NUMBER OF SYMMETRY AOS:          140
 NUMBER OF CONTRACTIONS:           92   (  92A   )
 NUMBER OF CORE ORBITALS:           4   (   4A   )
 NUMBER OF VALENCE ORBITALS:       16   (  16A   )


 NUCLEAR REPULSION ENERGY  156.52289971

 Eigenvalues of metric

         1 0.131E-03 0.236E-03 0.377E-03 0.606E-03 0.803E-03 0.158E-02 0.407E-02 0.574E-02


 Contracted 2-electron integrals neglected if value below      1.0D-11
 AO integral compression algorithm  1   Integral accuracy      1.0D-11

     50.856 MB (compressed) written to integral file ( 53.8%)

     Node minimum: 5.243 MB, node maximum: 8.389 MB


 NUMBER OF SORTED TWO-ELECTRON INTEGRALS:    1142760.     BUFFER LENGTH:  32768
 NUMBER OF SEGMENTS:   1  SEGMENT LENGTH:    1142760      RECORD LENGTH: 524288

 Memory used in sort:       1.70 MW

 SORT1 READ    11850593. AND WROTE     1122970. INTEGRALS IN      4 RECORDS. CPU TIME:     0.32 SEC, REAL TIME:     0.39 SEC
 SORT2 READ     8994302. AND WROTE     9152781. INTEGRALS IN    176 RECORDS. CPU TIME:     0.04 SEC, REAL TIME:     0.09 SEC

 Node minimum:     1142226.  Node maximum:     1145970. integrals

 OPERATOR DM      FOR CENTER  0  COORDINATES:    0.000000    0.000000    0.000000


 **********************************************************************************************************************************
 DATASETS  * FILE   NREC   LENGTH (MB)   RECORD NAMES
              1      18       16.76       500      610      700      900      950      970     1000      129      960     1100   
                                          VAR    BASINP    GEOM    SYMINP    ZMAT    AOBASIS   BASIS     P2S    ABASIS      S 
                                         1400     1410     1200     1210     1080     1600     1650     1700   
                                           T        V       H0       H01     AOSYM     SMH    MOLCAS    OPER   

 PROGRAMS   *        TOTAL       INT
 CPU TIMES  *         1.22      0.73
 REAL TIME  *         1.63 SEC
 DISK USED  *       174.55 MB      
 GA USED    *         0.00 MB       (max)       0.00 MB       (current)
 **********************************************************************************************************************************

1PROGRAM * RHF-SCF (CLOSED SHELL)       Authors: W. Meyer, H.-J. Werner


 NUMBER OF ELECTRONS:      16+   16-    SPACE SYMMETRY=1    SPIN SYMMETRY: Singlet 
 CONVERGENCE THRESHOLDS:    1.00E-06 (Density)    1.00E-07 (Energy)
 MAX. NUMBER OF ITERATIONS:       60
 INTERPOLATION TYPE:            DIIS
 INTERPOLATION STEPS:              2 (START)      1 (STEP)
 LEVEL SHIFTS:                  0.00 (CLOSED)  0.00 (OPEN) 



 Orbital guess generated from atomic densities. Full valence occupancy:   20

 Molecular orbital dump at record        2100.2

 Initial occupancy:  16

 ITERATION    DDIFF          GRAD             ENERGY        2-EL.EN.            DIPOLE MOMENTS         DIIS   ORB.
    1      0.000D+00      0.000D+00      -277.54554711    527.419340    0.73747    0.00250   -1.34104    0    start
    2      0.000D+00      0.175D-01      -277.70857165    530.661383   -0.03885   -0.00015   -0.18011    1    diag
    3      0.359D-01      0.109D-01      -277.78202785    527.981805    0.21821    0.00073   -0.62505    2    diag
    4      0.133D-01      0.975D-03      -277.78438438    528.545475    0.07110    0.00022   -0.61776    3    diag
    5      0.246D-02      0.761D-03      -277.78528880    528.361657    0.05546    0.00017   -0.62102    4    diag
    6      0.127D-02      0.309D-03      -277.78590805    528.398661   -0.01096   -0.00006   -0.63472    5    diag
    7      0.157D-02      0.183D-03      -277.78613806    528.457408   -0.05952   -0.00023   -0.64405    6    diag
    8      0.153D-02      0.406D-04      -277.78614968    528.447426   -0.07006   -0.00026   -0.64753    7    diag
    9      0.368D-03      0.134D-04      -277.78615065    528.459449   -0.07221   -0.00027   -0.64892    8    diag
   10      0.135D-03      0.454D-05      -277.78615073    528.458374   -0.07232   -0.00027   -0.64900    9    orth
   11      0.359D-04      0.131D-05      -277.78615074    528.458566   -0.07221   -0.00027   -0.64910    9    diag
   12      0.136D-04      0.328D-06      -277.78615074    528.458568   -0.07218   -0.00027   -0.64911    9    diag
   13      0.299D-05      0.109D-06      -277.78615074    528.458569   -0.07218   -0.00027   -0.64911    9    diag
   14      0.897D-06      0.315D-07      -277.78615074    528.458571   -0.07218   -0.00027   -0.64911    0    orth

 Final occupancy:  16

 !RHF STATE 1.1 Energy               -277.786150739930
 Nuclear energy                       156.52289971
 One-electron energy                 -698.53833596
 Two-electron energy                  264.22928552
 Virial quotient                       -0.97598590
 !RHF STATE 1.1 Dipole moment          -0.07218094    -0.00027273    -0.64911056
 Dipole moment /Debye                  -0.18345365    -0.00069317    -1.64976643

 Orbital energies:

         1.1          2.1          3.1          4.1          5.1          6.1          7.1          8.1          9.1         10.1
    -20.763933   -20.270390   -20.270291   -15.318954    -2.012960    -1.457830    -1.355172    -0.904356    -0.616087    -0.562660

        11.1         12.1         13.1         14.1         15.1         16.1         17.1         18.1
     -0.440805    -0.332752    -0.330894    -0.210801    -0.130076    -0.061923     0.262447     0.266759

 HOMO     16.1    -0.061923 =      -1.6850eV
 LUMO     17.1     0.262447 =       7.1415eV
 LUMO-HOMO         0.324370 =       8.8265eV


 **********************************************************************************************************************************
 DATASETS  * FILE   NREC   LENGTH (MB)   RECORD NAMES
              1      18       16.76       500      610      700      900      950      970     1000      129      960     1100   
                                          VAR    BASINP    GEOM    SYMINP    ZMAT    AOBASIS   BASIS     P2S    ABASIS      S 
                                         1400     1410     1200     1210     1080     1600     1650     1700   
                                           T        V       H0       H01     AOSYM     SMH    MOLCAS    OPER   

              2       4        0.60       700     1000      520     2100   
                                         GEOM     BASIS   MCVARS     RHF  

 PROGRAMS   *        TOTAL        HF       INT
 CPU TIMES  *         1.64      0.42      0.73
 REAL TIME  *         2.10 SEC
 DISK USED  *       318.74 MB      
 SF USED    *         0.03 MB      
 GA USED    *         0.00 MB       (max)       0.00 MB       (current)
 **********************************************************************************************************************************


1PROGRAM * MP2 (Closed-shell)     Authors: C. Hampel, H.-J. Werner, 1991, M. Deegan, P.J. Knowles, 1992


 Convergence thresholds:  THRVAR = 1.00D-12  THRDEN = 1.00D-08

 Number of core orbitals:           4 (   4 )
 Number of closed-shell orbitals:  12 (  12 )
 Number of external orbitals:      76 (  76 )

 Molecular orbitals read from record     2100.2  Type=RHF/CANONICAL (state 1.1)

 Number of N-1 electron functions:              12
 Number of N-2 electron functions:              78
 Number of singly external CSFs:               912
 Number of doubly external CSFs:            416328
 Total number of CSFs:                      417241

 Length of J-op  integral file:               0.00 MB
 Length of K-op  integral file:               0.59 MB

 Integral transformation finished. Total CPU:   0.39 sec, npass=  1  Memory used:   1.31 MW

 Memory needed for MP2:                      0.04 MW

 SCS-MP2 correlation energy:           -0.675306471884   (PS=  1.200000  PT=  0.333333)
 SCS-MP2 total energy:               -278.461457211815


  Reference energy                   -277.786150739931
  MP2 singlet pair energy              -0.405783450459
  MP2 triplet pair energy              -0.302731603929
  MP2 correlation energy               -0.708515054388

 !MP2 total energy                   -278.494665794318

 KEXT needed  1 integral passes. Memory used:   1.45 MW  CPU time:      0.51 sec


 Starting Coupled-perturbed Hartree-Fock, convergence threshold= 1.0D-06

 ITER   MIC  DIIS      VAR         VARC       CPU
   1     0     1    0.13D+00    0.12D-02     0.02
   2     9     2    0.10D-02    0.62D-03     0.08
   3     3     3    0.69D-04    0.56D-05     0.11
   4    10     4    0.18D-05    0.58D-06     0.15
   5     6     5    0.81D-06    0.46D-07     0.18

 CPHF convergence reached in  5 macroiterations and   28 microiterations.   Accuracy: 8.0780D-07

 CPHF solution written to record  4101.2

 Dipole moments (unrelaxed):           -0.03883822    -0.00015829    -0.63533474
 Orbital relaxation contribution:       0.43601256     0.00149495     0.09517547
 !!MP2 STATE 1.1 Dipole moment          0.39717435     0.00133666    -0.54015927
 Dipole moment /Debye                   1.00945038     0.00339724    -1.37285801
 
 CPU-time for density and lagrangian:                  0.06 sec
 CPU-time for coupled-perturbed hartree-fock:          0.18 sec

 MP2 Gradient info saved on record         5200.1


 **********************************************************************************************************************************
 DATASETS  * FILE   NREC   LENGTH (MB)   RECORD NAMES
              1      20       28.77       500      610      700      900      950      970     1000      129      960     1100   
                                          VAR    BASINP    GEOM    SYMINP    ZMAT    AOBASIS   BASIS     P2S    ABASIS      S 
                                         1400     1410     1200     1210     1080     1600     1650     1700     1380     5200   
                                           T        V       H0       H01     AOSYM     SMH    MOLCAS    OPER     JKOP      MP2  

              2       6        0.91       700     1000      520     2100     4100     4101   
                                         GEOM     BASIS   MCVARS     RHF     CPHF     CPHF   

 PROGRAMS   *        TOTAL       MP2        HF       INT
 CPU TIMES  *         2.93      1.28      0.42      0.73
 REAL TIME  *         3.61 SEC
 DISK USED  *       413.08 MB      
 SF USED    *        31.24 MB      
 GA USED    *         0.00 MB       (max)       0.00 MB       (current)
 **********************************************************************************************************************************
 SETTING E_H2O_B3LYP_AVQZ                =    -278.49466579  AU                              


 PROGRAM * OPT (Geometry optimization)     Authors: F. Eckert and H.-J. Werner


 BFGS update of hessian

 *** Long output written to logfile /home/sstraight/projects/h3o/1B_training_set/training_set_builder/test_case_no3/output.log ***


 Geometry optimization using default procedure for command MP2

 Geometry written to block  1 of record 700

 Making model hessian for cartesian coordinates

 Entering Rational Function Geometry Optimization

 ITER.   ENERGY(OLD)    ENERGY(NEW)      DE          GRADMAX     GRADNORM    GRADRMS     STEPMAX     STEPLEN     STEPRMS   CPU-time
   1  -278.49466579  -279.00038959    -0.50572379  2.08047246  2.31162490  0.38527082  0.24118669  0.30000000  0.15000000      4.23
   2  -279.00038959  -279.24447149    -0.24408191  1.07226728  1.20477351  0.20079559  0.25153447  0.30000000  0.15000000      8.52
   3  -279.24447149  -279.37975729    -0.13528580  0.67238325  0.68116144  0.11352691  0.24820186  0.30000000  0.15000000     12.61
   4  -279.37975729  -279.43774769    -0.05799040  0.32341502  0.33320781  0.05553463  0.24241413  0.28924701  0.14462350     16.77
   5  -279.43774769  -279.44804937    -0.01030167  0.10718789  0.11636102  0.01939350  0.12509639  0.14819189  0.07409594     20.74
   6  -279.44804937  -279.45021738    -0.00216802  0.03773067  0.05162150  0.00860358  0.06092568  0.07956312  0.03978156     24.66
   7  -279.45021738  -279.45115347    -0.00093608  0.03238118  0.03558420  0.00593070  0.03620880  0.05776674  0.02888337     28.66
   8  -279.45115347  -279.45154158    -0.00038811  0.01959296  0.02317179  0.00386197  0.02644816  0.04054099  0.02027049     32.83
   9  -279.45154158  -279.45163179    -0.00009021  0.01067986  0.01120343  0.00186724  0.00942792  0.01182456  0.00591228     36.88
  10  -279.45163179  -279.45173938    -0.00010759  0.00838377  0.00984420  0.00164070  0.01981978  0.02010833  0.01005417     41.07
  11  -279.45173938  -279.45178953    -0.00005014  0.00681685  0.00879948  0.00146658  0.01409130  0.01459129  0.00729565     45.11
  12  -279.45178953  -279.45180161    -0.00001209  0.00408604  0.00482036  0.00080339  0.00345431  0.00548912  0.00274456     49.28
  13  -279.45180161  -279.45180252    -0.00000091  0.00090179  0.00115305  0.00019217  0.00132978  0.00187943  0.00093971     53.42
  14  -279.45180252  -279.45180251     0.00000001  0.00007766  0.00010672  0.00001779  0.00029230  0.00038134  0.00019067     58.64

 END OF GEOMETRY OPTIMIZATION.

 Current geometry (xyz format, in Angstrom)

    4
 MP2/AVDZ  ENERGY=-279.45180251
 O         -0.0918094327       -0.0003142374        0.1431837545
 O          0.6907821015        1.1709484349        0.1503861444
 O          0.6988439260       -1.1661499016        0.1503924886
 N         -1.2975728847       -0.0044735458        0.1321636325

 **********************************************************************************************************************************

 Geometry written to block  1 of record 700


 **********************************************************************************************************************************
 DATASETS  * FILE   NREC   LENGTH (MB)   RECORD NAMES
              1      20       28.77       500      610      700      900      950      970     1000      129      960     1100   
                                          VAR    BASINP    GEOM    SYMINP    ZMAT    AOBASIS   BASIS     P2S    ABASIS      S 
                                         1400     1410     1200     1210     1080     1600     1650     1700     1380     5200   
                                           T        V       H0       H01     AOSYM     SMH    MOLCAS    OPER     JKOP      MP2  

              2       7        0.94       700     1000      520     2100     4100     4101     9001   
                                         GEOM     BASIS   MCVARS     RHF     CPHF     CPHF    DEN_MP2    

 PROGRAMS   *        TOTAL      OPTG       MP2        HF       INT
 CPU TIMES  *        61.57     58.64      1.28      0.42      0.73
 REAL TIME  *        71.33 SEC
 DISK USED  *       414.02 MB      
 SF USED    *        31.50 MB      
 GA USED    *         0.00 MB       (max)       0.00 MB       (current)
 **********************************************************************************************************************************


 PROGRAM * HESSIAN

 Computing numerical hessian using default procedure for command MP2

 Using no symmetry in wavefunction calculations

 Running default procedure: HF-SCF000  MP2
 

 Numerically approximating hessian using central gradient differences

 Task list generated. Total number of displacements:     24

    5 tasks completed, CPU=26s Elapsed=30s
   10 tasks completed, CPU=52s Elapsed=56s
   15 tasks completed, CPU=1m 18s Elapsed=1m 24s
   20 tasks completed, CPU=1m 43s Elapsed=1m 51s

 Numerical MP2 hessian completed. CPU-time:   124.69 sec, Elapsed:   132.88 sec

 MP2 hessian saved to record  5300.2

 FREQUENCIES * CALCULATION OF HARMONIC VIBRATIONAL SPECTRA FOR MP2


 Permanent Dipole Moment [debye]
   1-  3   -1.173726   -0.004061   -0.702517

 Dipole Moment Norm    1.3679107 [debye]

 Dipole Moment Derivatives [debye/ang]
                   1             2             3             4             5             6             7             8
         1    10.0038952     0.0123145     0.0875274    -4.0435361    -3.3804843    -0.0190047    -4.0750210     3.3835017
         2     0.0123145     6.4298674     0.0002855    -1.1802352    -4.5129435    -0.0108617     1.1832556    -4.4814585
         3     0.0875993     0.0002844     0.4327871    -0.0188278    -0.0310077    -1.9893803    -0.0190477     0.0308911
                   9            10            11            12
         1    -0.0190988    -6.6854907    -0.0154434    -0.0496494
         2     0.0107432    -0.0153436    -2.2375659    -0.0001673
         3    -1.9893841    -0.0496968    -0.0001702    -1.2567943

 Projecting out rotations and translations

   Low Vibration      Wavenumber
        Nr             [1/cm] 
        1                0.00
        2                0.00
        3                0.00
        4                0.00
        5                0.00
        6                0.00

     Vibration        Wavenumber
        Nr             [1/cm] 
        1              474.94
        2              607.67
        3              623.34
        4              730.41
        5              853.54
        6             1369.92

 FREQUENCIES * CALCULATION OF NORMAL MODES FOR MP2


 Atomic Coordinates

  Nr  Atom  Charge       X              Y              Z

   1   O     8.00   -0.173494684   -0.000593823    0.270578082
   2   O     8.00    1.305388984    2.212771848    0.284188626
   3   O     8.00    1.320623624   -2.203703934    0.284200615
   4   N     7.00   -2.452057379   -0.008453776    0.249753069

 Frequencies dumped to record   5400.2

 Gradient norm at reference geometry: 0.10672D-03
 
 Molecule is not in standard orientation!
 Symmetry information for normal modes not available!

 Normal Modes

                              1 A         2 A         3 A         4 A         5 A  
 Wavenumbers [cm-1]          474.94      607.67      623.34      730.41      853.54
 Intensities [km/mol]         36.34       23.78        9.41      162.05      198.56
 Intensities [relative]       10.92        7.15        2.83       48.71       59.68
           GX1             -0.02770    -0.00006    -0.00195     0.13559    -0.00074
           GY1             -0.00010     0.01836    -0.00001     0.00047     0.21406
           GZ1             -0.00025     0.00000     0.21428     0.00123    -0.00000
           GX2              0.04183    -0.12117     0.00059    -0.11556     0.00182
           GY2             -0.16554    -0.07720     0.00000    -0.05869    -0.06383
           GZ2              0.00038    -0.00111    -0.06484    -0.00106     0.00001
           GX3              0.04068     0.12170     0.00059    -0.11597    -0.00138
           GY3              0.16582    -0.07636     0.00000     0.05789    -0.06384
           GZ3              0.00038     0.00111    -0.06484    -0.00106    -0.00001
           GX4             -0.06261    -0.00053     0.00089     0.10958     0.00034
           GY4             -0.00022     0.15443     0.00000     0.00038    -0.09869
           GZ4             -0.00057    -0.00000    -0.09663     0.00101     0.00000

                              6 A  
 Wavenumbers [cm-1]         1369.92
 Intensities [km/mol]        332.68
 Intensities [relative]      100.00
           GX1             -0.16498
           GY1             -0.00057
           GZ1             -0.00151
           GX2             -0.00425
           GY2             -0.02011
           GZ2             -0.00004
           GX3             -0.00439
           GY3              0.02008
           GZ3             -0.00004
           GX4              0.19833
           GY4              0.00068
           GZ4              0.00181


 Normal Modes of low/zero frequencies

                                  1           2           3           4           5
 Wavenumbers [cm-1]            0.00        0.00        0.00        0.00        0.00
 Intensities [km/mol]          0.00        0.00        0.00        0.00        0.00
 Intensities [relative]        0.00        0.00        0.00        0.00        0.00
           GX1              0.02338     0.06387     0.01487     0.01425     0.04914
           GY1             -0.07763    -0.00125     0.05997     0.05241     0.05683
           GZ1              0.08710    -0.05746     0.02897     0.06533     0.02256
           GX2             -0.02713    -0.02100     0.03063     0.01816     0.02891
           GY2             -0.04384     0.05583     0.04986     0.05049     0.06936
           GZ2              0.08048    -0.11832    -0.04025    -0.04706     0.18305
           GX3              0.07421     0.14858     0.00112     0.01008     0.06823
           GY3             -0.04349     0.05641     0.04976     0.05047     0.06949
           GZ3              0.03394    -0.02171    -0.11408     0.20761    -0.02302
           GX4              0.02314     0.06400     0.01333     0.01445     0.05002
           GY4             -0.12969    -0.08920     0.07554     0.05538     0.03752
           GZ4              0.13291    -0.03821     0.19166     0.04241    -0.06552

                                  6
 Wavenumbers [cm-1]            0.00
 Intensities [km/mol]          0.00
 Intensities [relative]        0.00
           GX1              0.09307
           GY1             -0.02726
           GZ1             -0.00903
           GX2              0.17150
           GY2             -0.07958
           GZ2             -0.02182
           GX3              0.01499
           GY3             -0.08012
           GZ3              0.00519
           GX4              0.09280
           GY4              0.05337
           GZ4             -0.01013


 FREQUENCIES * CALCULATION OF THERMODYNAMICAL PROPERTIES

 Temperature   298.150 [K]  Pressure   1.00000 [atm]
 Atom  1: O         Mass  15.99940
 Atom  2: O         Mass  15.99940
 Atom  3: O         Mass  15.99940
 Atom  4: N         Mass  14.00670

 Molecular Mass:    62.00490 [a.u.]
 Moments of Inertia         295.52873   156.03807   139.49066 [a.u.]
 Point Group C2V   Order of principal axis 2
 Rotational Symmetry factor  2.0
 Rotational Temperatures      0.29308     0.55507     0.62092 [K]
 Rotational Constants         6.10673    11.56586    12.93788 [GHz]

 WARNING: Using the   2 Vibrational Modes  with wavenumbers below 1000 [1/cm]
 may cause significant error at T =     298.150 [K]: Use 0.5*RT instead.

 Vibrational Temperatures [K]    683.33   874.30   896.84  1050.89  1228.05
                                1971.00

 Zero-Point vibrational Energy       27.872 [kJ/Mol]
                                      6.662 [kcal/Mol]

 Electronic Energy at 0 [K]:                      -279.451803 [H]
 Electronic Energy + Zero-Point correction:       -279.441187 [H]
 Electronic Energy at     298.150 [K]:            -279.437634 [H]
 Enthalpy H at            298.150 [K]:            -279.436690 [H]
 Free Enthalpy G at       298.150 [K]:            -279.466304 [H]

 Partition Function  Z                 log10(Z)          ln(Z)
 Electronic      0.100000D+01          0.000000          0.000000
 Translation     0.191915D+08          7.283109         16.769979
 Rotation        0.143555D+05          4.157017          9.571885
 Vibration       0.129640D+01          0.112740          0.259593
 Vibration    1  0.111244D+01          0.046277          0.106557
 Vibration    2  0.105627D+01          0.023773          0.054740
 Total           0.357163D+12         11.552866         26.341864

                       H(T)-H(0)              Cv                 S
                       [kJ/Mol]          [J/Mol K]          [J/Mol K] 
 Electronic               0.000              0.000              0.000
 Translation              3.718             12.472            160.220
 Rotation                 3.718             12.472             92.057
 Vibration                1.891             19.915              8.502
 Vibration  1             3.480              5.463              3.029
 Vibration  2             4.044              4.249              1.827
 Volume (RT)              2.479              0.000              0.000
 Total                   11.807             44.859            260.780

 Thermal energies including ZPE:

 H(T)-E(0)               39.679 kJ/Mol
 U(T)-E(0)               37.200 kJ/Mol

                       H(T)-H(0)              Cv                 S
                       [kcal/Mol]        [cal/Mol K]        [cal/Mol K] 
 Electronic               0.000              0.000              0.000
 Translation              0.889              2.981             38.294
 Rotation                 0.889              2.981             22.002
 Vibration                0.452              4.760              2.032
 Vibration  1             0.832              1.306              0.724
 Vibration  2             0.966              1.016              0.437
 Volume (RT)              0.592              0.000              0.000
 Total                    2.822             10.722             62.328

 Thermal energies including ZPE:

 H(T)-E(0)                9.484 kcal/Mol
 U(T)-E(0)                8.891 kcal/Mol
 Frequency information read from record  5400.2

 MP2/aug-cc-pVDZ energy=   -279.451802565235

       OPTG(MP2)        MP2             HF-SCF  
   -279.45180251   -278.49466579   -277.78615074
 **********************************************************************************************************************************
 Variable memory released
