<?xml version="1.0"?>
<molpro xmlns="http://www.molpro.net/schema/molpro-output"
  xmlns:xsd="http://www.w3.org/1999/XMLSchema"
  xmlns:cml="http://www.xml-cml.org/schema"
  xmlns:stm="http://www.xml-cml.org/schema"
  xmlns:xhtml="http://www.w3.org/1999/xhtml">
 <!--

 Primary working directories    : /home/sstraight/tmp
 Secondary working directories  : /home/sstraight/tmp
 Wavefunction directory         : /home/sstraight/wfu/
 Main file repository           : /home/sstraight/tmp/

 SHA1      : 41aa48e1468dac041f2eaabdf410f3ce2ee7f8bf
 NAME      : 2015.1.0
 ARCHNAME  : linux/x86_64
 FC        : /opt/intel/composer_xe_2015.1.133/bin/intel64/ifort
 BLASLIB   : -Wl,-_start-group /opt/intel/mkl/lib/intel64/libmkl_intel_ilp64.a /opt/intel/mkl/lib/intel64/libmkl_sequential.a /opt/intel/mkl/lib/intel64/libmkl_core.a -Wl,-_end-group
 id        : vbabin

 Nodes     nprocs
 mill         8

 Using customized tuning parameters: mindgm=1; mindgv=20; mindgc=4; mindgr=1; noblas=0; minvec=7
 default implementation of scratch files=sf  

 --><job>
  <!--
 memory, 32,M
 
 geomtyp=xyz
 geometry={
 4
 nitrate anion geometry taken from hydronium
  O   -0.0000348200   -0.0000015400   -0.0823037200
  O    0.4651268700    0.8117667800    0.2194445200
  O    0.4707170800   -0.8085316900    0.2194487400
  N   -0.9355654200   -0.0032228000    0.2195364800
 }
 
 basis
 default=avdz
 end
 
 CHARGE = -1, SPIN = 0
 hf
 mp2
 
 e_H2O_b3lyp_avqz = energy
 optg;coord,3n
 {frequencies
 thermo,sym=c2v
 print,thermo}

 Variables initialized (889), CPU time= 0.06 sec
 Commands  initialized (702), CPU time= 0.05 sec, 572 directives.
 Default parameters read. Elapsed time= 0.33 sec

 Checking input...
 Passed
1


                                         ***  PROGRAM SYSTEM MOLPRO  ***
                                       Copyright, TTI GmbH Stuttgart, 2015
                                    Version 2015.1 linked Nov 13 2015 17:13:29


 **********************************************************************************************************************************
 LABEL *                                                                                 
  64 bit mpp version                                                                     DATE: 12-Aug-16          TIME: 16:07:17  
 **********************************************************************************************************************************

 SHA1:             41aa48e1468dac041f2eaabdf410f3ce2ee7f8bf
 **********************************************************************************************************************************
  -->
  <!--
 SETTING GEOMTYP        =    XYZ

 Variable memory set to   32000000 words,  buffer space   230000 words

 SETTING BASIS          =    AVDZ
 SETTING CHARGE         =        -1.00000000                                  
 SETTING SPIN           =     0.00000000D+00                                  
  --><jobstep command="HF-SCF" commandset="SCFPRO">
   <!--


 Recomputing integrals since basis changed


 Using spherical harmonics

 Library entry O      S aug-cc-pVDZ          selected for orbital group  1
 Library entry O      P aug-cc-pVDZ          selected for orbital group  1
 Library entry O      D aug-cc-pVDZ          selected for orbital group  1
 Library entry N      S aug-cc-pVDZ          selected for orbital group  2
 Library entry N      P aug-cc-pVDZ          selected for orbital group  2
 Library entry N      D aug-cc-pVDZ          selected for orbital group  2

1PROGRAM * SEWARD (Integral evaluation for generally contracted gaussian basis sets)     Author: Roland Lindh, 1990

 Geometry written to block  1 of record 700


 Point group  C1  


   --><cml:molecule>
    <cml:symmetry pointGroup="C1"/>
    <cml:atomArray>
     <cml:atom id="a1" elementType="O" x3="-0.3482E-04" y3="-0.154E-05" z3="-0.8230372E-01"/>
     <cml:atom id="a2" elementType="O" x3="0.46512687" y3="0.81176678" z3="0.21944452"/>
     <cml:atom id="a3" elementType="O" x3="0.47071708" y3="-0.80853169" z3="0.21944874"/>
     <cml:atom id="a4" elementType="N" x3="-0.93556542" y3="-0.32228E-02" z3="0.21953648"/>
    </cml:atomArray>
    <cml:bondArray>
     <cml:bond atomRefs2="a1 a2"/>
     <cml:bond atomRefs2="a1 a3"/>
     <cml:bond atomRefs2="a2 a3"/>
     <cml:bond atomRefs2="a1 a4"/>
     <cml:bond atomRefs2="a2 a4"/>
     <cml:bond atomRefs2="a3 a4"/>
    </cml:bondArray>
   </cml:molecule><!--

 ATOMIC COORDINATES

 NR  ATOM    CHARGE       X              Y              Z

   1  O       8.00   -0.000065800   -0.000002910   -0.155531490
   2  O       8.00    0.878962397    1.534016891    0.414690042
   3  O       8.00    0.889526363   -1.527903457    0.414698017
   4  N       7.00   -1.767962415   -0.006090209    0.414863822

 Bond lengths in Bohr (Angstrom)

 1-2  1.857702861  1-3  1.857691037  1-4  1.857645367  2-3  3.061938572  2-4  3.062375039
     ( 0.983054019)     ( 0.983047762)     ( 0.983023594)     ( 1.620308113)     ( 1.620539082)

 3-4  3.062378520
     ( 1.620540924)

 Bond angles

  1-2-3   34.50027874   1-2-4   34.48688468   1-3-2   34.50052937   1-3-4   34.48664970

  1-4-2   34.48810285   1-4-3   34.48761734   2-1-3  110.99919189   2-1-4  111.02501247

  2-3-4   60.00467698   2-4-3   59.99053321   3-1-4  111.02573296   3-2-4   60.00478981

 NUCLEAR CHARGE:                   31
 NUMBER OF PRIMITIVE AOS:         148
 NUMBER OF SYMMETRY AOS:          140
 NUMBER OF CONTRACTIONS:           92   (  92A   )
 NUMBER OF CORE ORBITALS:           4   (   4A   )
 NUMBER OF VALENCE ORBITALS:       16   (  16A   )


 NUCLEAR REPULSION ENERGY  156.52289971

 Eigenvalues of metric

         1 0.131E-03 0.236E-03 0.377E-03 0.606E-03 0.803E-03 0.158E-02 0.407E-02 0.574E-02


 Contracted 2-electron integrals neglected if value below      1.0D-11
 AO integral compression algorithm  1   Integral accuracy      1.0D-11

     50.856 MB (compressed) written to integral file ( 53.8%)

     Node minimum: 5.243 MB, node maximum: 8.389 MB


 NUMBER OF SORTED TWO-ELECTRON INTEGRALS:    1142760.     BUFFER LENGTH:  32768
 NUMBER OF SEGMENTS:   1  SEGMENT LENGTH:    1142760      RECORD LENGTH: 524288

 Memory used in sort:       1.70 MW

 SORT1 READ    11850593. AND WROTE     1122970. INTEGRALS IN      4 RECORDS. CPU TIME:     0.32 SEC, REAL TIME:     0.39 SEC
 SORT2 READ     8994302. AND WROTE     9152781. INTEGRALS IN    176 RECORDS. CPU TIME:     0.04 SEC, REAL TIME:     0.09 SEC

 Node minimum:     1142226.  Node maximum:     1145970. integrals

 OPERATOR DM      FOR CENTER  0  COORDINATES:    0.000000    0.000000    0.000000


 **********************************************************************************************************************************
 DATASETS  * FILE   NREC   LENGTH (MB)   RECORD NAMES
              1      18       16.76       500      610      700      900      950      970     1000      129      960     1100   
                                          VAR    BASINP    GEOM    SYMINP    ZMAT    AOBASIS   BASIS     P2S    ABASIS      S 
                                         1400     1410     1200     1210     1080     1600     1650     1700   
                                           T        V       H0       H01     AOSYM     SMH    MOLCAS    OPER   

 PROGRAMS   *        TOTAL       INT
 CPU TIMES  *         1.22      0.73
 REAL TIME  *         1.63 SEC
 DISK USED  *       174.55 MB      
 GA USED    *         0.00 MB       (max)       0.00 MB       (current)
 **********************************************************************************************************************************

1PROGRAM * RHF-SCF (CLOSED SHELL)       Authors: W. Meyer, H.-J. Werner


 NUMBER OF ELECTRONS:      16+   16-    SPACE SYMMETRY=1    SPIN SYMMETRY: Singlet 
 CONVERGENCE THRESHOLDS:    1.00E-06 (Density)    1.00E-07 (Energy)
 MAX. NUMBER OF ITERATIONS:       60
 INTERPOLATION TYPE:            DIIS
 INTERPOLATION STEPS:              2 (START)      1 (STEP)
 LEVEL SHIFTS:                  0.00 (CLOSED)  0.00 (OPEN) 



 Orbital guess generated from atomic densities. Full valence occupancy:   20

 Molecular orbital dump at record        2100.2

 Initial occupancy:  16

 ITERATION    DDIFF          GRAD             ENERGY        2-EL.EN.            DIPOLE MOMENTS         DIIS   ORB.
    1      0.000D+00      0.000D+00      -277.54554711    527.419340    0.73747    0.00250   -1.34104    0    start
    2      0.000D+00      0.175D-01      -277.70857165    530.661383   -0.03885   -0.00015   -0.18011    1    diag
    3      0.359D-01      0.109D-01      -277.78202785    527.981805    0.21821    0.00073   -0.62505    2    diag
    4      0.133D-01      0.975D-03      -277.78438438    528.545475    0.07110    0.00022   -0.61776    3    diag
    5      0.246D-02      0.761D-03      -277.78528880    528.361657    0.05546    0.00017   -0.62102    4    diag
    6      0.127D-02      0.309D-03      -277.78590805    528.398661   -0.01096   -0.00006   -0.63472    5    diag
    7      0.157D-02      0.183D-03      -277.78613806    528.457408   -0.05952   -0.00023   -0.64405    6    diag
    8      0.153D-02      0.406D-04      -277.78614968    528.447426   -0.07006   -0.00026   -0.64753    7    diag
    9      0.368D-03      0.134D-04      -277.78615065    528.459449   -0.07221   -0.00027   -0.64892    8    diag
   10      0.135D-03      0.454D-05      -277.78615073    528.458374   -0.07232   -0.00027   -0.64900    9    orth
   11      0.359D-04      0.131D-05      -277.78615074    528.458566   -0.07221   -0.00027   -0.64910    9    diag
   12      0.136D-04      0.328D-06      -277.78615074    528.458568   -0.07218   -0.00027   -0.64911    9    diag
   13      0.299D-05      0.109D-06      -277.78615074    528.458569   -0.07218   -0.00027   -0.64911    9    diag
   14      0.897D-06      0.315D-07      -277.78615074    528.458571   -0.07218   -0.00027   -0.64911    0    orth

 Final occupancy:  16

 !RHF STATE 1.1 Energy               -277.786150739930
   --><property name="Energy" method="RHF" principal="true" stateSymmetry="1" stateNumber="1"
     value="-277.78615073993"/><!--
 Nuclear energy                       156.52289971
 One-electron energy                 -698.53833596
 Two-electron energy                  264.22928552
 Virial quotient                       -0.97598590
 !RHF STATE 1.1 Dipole moment          -0.07218094    -0.00027273    -0.64911056
 Dipole moment /Debye                  -0.18345365    -0.00069317    -1.64976643
   --><property name="Dipole moment" method="RHF" principal="true" stateSymmetry="1"
     stateNumber="1"
     value="-0.721809446683839E-01 -0.27273314350728E-03 -0.649110564823413"/><!--

 Orbital energies:

         1.1          2.1          3.1          4.1          5.1          6.1          7.1          8.1          9.1         10.1
    -20.763933   -20.270390   -20.270291   -15.318954    -2.012960    -1.457830    -1.355172    -0.904356    -0.616087    -0.562660

        11.1         12.1         13.1         14.1         15.1         16.1         17.1         18.1
     -0.440805    -0.332752    -0.330894    -0.210801    -0.130076    -0.061923     0.262447     0.266759

 HOMO     16.1    -0.061923 =      -1.6850eV
 LUMO     17.1     0.262447 =       7.1415eV
 LUMO-HOMO         0.324370 =       8.8265eV


 **********************************************************************************************************************************
 DATASETS  * FILE   NREC   LENGTH (MB)   RECORD NAMES
              1      18       16.76       500      610      700      900      950      970     1000      129      960     1100   
                                          VAR    BASINP    GEOM    SYMINP    ZMAT    AOBASIS   BASIS     P2S    ABASIS      S 
                                         1400     1410     1200     1210     1080     1600     1650     1700   
                                           T        V       H0       H01     AOSYM     SMH    MOLCAS    OPER   

              2       4        0.60       700     1000      520     2100   
                                         GEOM     BASIS   MCVARS     RHF  

 PROGRAMS   *        TOTAL        HF       INT
 CPU TIMES  *         1.64      0.42      0.73
 REAL TIME  *         2.10 SEC
 DISK USED  *       318.74 MB      
 SF USED    *         0.03 MB      
 GA USED    *         0.00 MB       (max)       0.00 MB       (current)
 **********************************************************************************************************************************
   -->
   <time start="16:07:17" end="16:07:18" cpu="1.64" system="0.37" real="2.1"/>
   <storage units="megabyte" memory="257.84" sf="0.03" df="144.19" eaf="174.55" ga="0.0"/>
  </jobstep><!--
  --><jobstep command="MP2" commandset="CCSD">
   <!--


1PROGRAM * MP2 (Closed-shell)     Authors: C. Hampel, H.-J. Werner, 1991, M. Deegan, P.J. Knowles, 1992


 Convergence thresholds:  THRVAR = 1.00D-12  THRDEN = 1.00D-08

 Number of core orbitals:           4 (   4 )
 Number of closed-shell orbitals:  12 (  12 )
 Number of external orbitals:      76 (  76 )

 Molecular orbitals read from record     2100.2  Type=RHF/CANONICAL (state 1.1)

 Number of N-1 electron functions:              12
 Number of N-2 electron functions:              78
 Number of singly external CSFs:               912
 Number of doubly external CSFs:            416328
 Total number of CSFs:                      417241

 Length of J-op  integral file:               0.00 MB
 Length of K-op  integral file:               0.59 MB

 Integral transformation finished. Total CPU:   0.39 sec, npass=  1  Memory used:   1.31 MW

 Memory needed for MP2:                      0.04 MW

 SCS-MP2 correlation energy:           -0.675306471884   (PS=  1.200000  PT=  0.333333)
 SCS-MP2 total energy:               -278.461457211815


  Reference energy                   -277.786150739931
  MP2 singlet pair energy              -0.405783450459
  MP2 triplet pair energy              -0.302731603929
  MP2 correlation energy               -0.708515054388

 !MP2 total energy                   -278.494665794318
   --><property name="energy" method="Reference" stateSymmetry="1" stateNumber="1"
     value="-277.786150739931"/>
      <property name="singlet pair energy" method="MP2" stateSymmetry="1" stateNumber="1"
     value="-0.405783450458844"/>
      <property name="triplet pair energy" method="MP2" stateSymmetry="1" stateNumber="1"
     value="-0.30273160392889"/>
      <property name="correlation energy" method="MP2" stateSymmetry="1" stateNumber="1"
     value="-0.708515054387733"/>
      <property name="total energy" method="MP2" principal="true" stateSymmetry="1"
     stateNumber="1" value="-278.494665794318"/><!--

 KEXT needed  1 integral passes. Memory used:   1.45 MW  CPU time:      0.51 sec


 Starting Coupled-perturbed Hartree-Fock, convergence threshold= 1.0D-06

 ITER   MIC  DIIS      VAR         VARC       CPU
   1     0     1    0.13D+00    0.12D-02     0.02
   2     9     2    0.10D-02    0.62D-03     0.08
   3     3     3    0.69D-04    0.56D-05     0.11
   4    10     4    0.18D-05    0.58D-06     0.15
   5     6     5    0.81D-06    0.46D-07     0.18

 CPHF convergence reached in  5 macroiterations and   28 microiterations.   Accuracy: 8.0780D-07

 CPHF solution written to record  4101.2

 Dipole moments (unrelaxed):           -0.03883822    -0.00015829    -0.63533474
 Orbital relaxation contribution:       0.43601256     0.00149495     0.09517547
 !!MP2 STATE 1.1 Dipole moment          0.39717435     0.00133666    -0.54015927
 Dipole moment /Debye                   1.00945038     0.00339724    -1.37285801
   --><property name="Dipole moment" method="!MP2" principal="true" stateSymmetry="1"
     stateNumber="1"
     value="0.3971743477783 0.133666314939852E-02 -0.540159274184042"/><!--
 
 CPU-time for density and lagrangian:                  0.06 sec
 CPU-time for coupled-perturbed hartree-fock:          0.18 sec

 MP2 Gradient info saved on record         5200.1


 **********************************************************************************************************************************
 DATASETS  * FILE   NREC   LENGTH (MB)   RECORD NAMES
              1      20       28.77       500      610      700      900      950      970     1000      129      960     1100   
                                          VAR    BASINP    GEOM    SYMINP    ZMAT    AOBASIS   BASIS     P2S    ABASIS      S 
                                         1400     1410     1200     1210     1080     1600     1650     1700     1380     5200   
                                           T        V       H0       H01     AOSYM     SMH    MOLCAS    OPER     JKOP      MP2  

              2       6        0.91       700     1000      520     2100     4100     4101   
                                         GEOM     BASIS   MCVARS     RHF     CPHF     CPHF   

 PROGRAMS   *        TOTAL       MP2        HF       INT
 CPU TIMES  *         2.93      1.28      0.42      0.73
 REAL TIME  *         3.61 SEC
 DISK USED  *       413.08 MB      
 SF USED    *        31.24 MB      
 GA USED    *         0.00 MB       (max)       0.00 MB       (current)
 **********************************************************************************************************************************
   -->
   <time start="16:07:18" end="16:07:20" cpu="1.29" system="0.13" real="1.51"/>
   <storage units="megabyte" memory="257.84" sf="31.24" df="238.53" eaf="174.55" ga="0.0"/>
  </jobstep><!--
 SETTING E_H2O_B3LYP_AVQZ                =    -278.49466579  AU                              
  --><jobstep command="OPTG" commandset="OPT">
   <!--


 PROGRAM * OPT (Geometry optimization)     Authors: F. Eckert and H.-J. Werner


 BFGS update of hessian

 *** Long output written to logfile /home/sstraight/projects/h3o/1B_training_set/training_set_builder/test_case_no3/output.log ***


 Geometry optimization using default procedure for command MP2

 Geometry written to block  1 of record 700
   --><gradient name="MP2 GRADIENT" stateSymmetry="1" stateNumber="1"
     virial="-7.13227353139925">
      0.184101181846   0.000619449788   0.397749820490
     -0.709146935248  -1.128721830318  -0.152309703800
     -0.716940588813   1.123826171311  -0.152323266066
      1.241986342214   0.004276209219  -0.093116850624
   </gradient><!--

 Making model hessian for cartesian coordinates

 Entering Rational Function Geometry Optimization
   --><opt energy="-278.49466579" type="MP2" line="0.0" convergence="0.3"
     gradient="2.31162490407264"/><!--
   --><jobstep command="HF-SCF" commandset="SCFPRO">
    <!--
    --><cml:molecule>
     <cml:symmetry pointGroup="C1"/>
     <cml:atomArray>
      <cml:atom id="a1" elementType="O" x3="-0.783173951881928E-02" y3="-0.279500875949792E-04"
        z3="-0.834161522940072E-01"/>
      <cml:atom id="a2" elementType="O" x3="0.513707225121779" y3="0.890291763970175"
        z3="0.22065027555873"/>
      <cml:atom id="a3" elementType="O" x3="0.519839515432185" y3="-0.886720815452613"
        z3="0.220655089529157"/>
      <cml:atom id="a4" elementType="N" x3="-1.02547129103514" y3="-0.35322484299678E-02"
        z3="0.21823680720612"/>
     </cml:atomArray>
     <cml:bondArray>
      <cml:bond atomRefs2="a1 a2"/>
      <cml:bond atomRefs2="a1 a3"/>
      <cml:bond atomRefs2="a2 a3"/>
      <cml:bond atomRefs2="a1 a4"/>
      <cml:bond atomRefs2="a2 a4"/>
      <cml:bond atomRefs2="a3 a4"/>
     </cml:bondArray>
    </cml:molecule><!--
    --><property name="Energy" method="RHF" principal="true" stateSymmetry="1" stateNumber="1"
      value="-278.278624137628"/><!--
    --><property name="Dipole moment" method="RHF" principal="true" stateSymmetry="1"
      stateNumber="1"
      value="-0.310131616471283 -0.108446676631178E-02 -0.621238804058819"/><!--
    -->
    <time start="16:07:22" end="16:07:23" cpu="2.93" system="0.36" real="3.44"/>
    <storage units="megabyte" memory="257.84" sf="31.24" df="238.53" eaf="175.21" ga="0.0"/>
   </jobstep><!--
   --><jobstep command="MP2" commandset="CCSD">
    <!--
    --><property name="energy" method="Reference" stateSymmetry="1" stateNumber="1"
      value="-278.278624137627"/>
       <property name="singlet pair energy" method="MP2" stateSymmetry="1" stateNumber="1"
      value="-0.416813250516735"/>
       <property name="triplet pair energy" method="MP2" stateSymmetry="1" stateNumber="1"
      value="-0.304952198963143"/>
       <property name="correlation energy" method="MP2" stateSymmetry="1" stateNumber="1"
      value="-0.721765449479878"/>
       <property name="total energy" method="MP2" principal="true" stateSymmetry="1"
      stateNumber="1" value="-279.000389587107"/><!--
    --><property name="Dipole moment" method="!MP2" principal="true" stateSymmetry="1"
      stateNumber="1"
      value="0.236027350480795 0.79384343096546E-03 -0.518267697413513"/><!--
    -->
    <time start="16:07:23" end="16:07:24" cpu="1.3" system="0.13" real="1.44"/>
    <storage units="megabyte" memory="257.84" sf="31.27" df="238.8" eaf="175.21" ga="0.0"/>
   </jobstep><!--

 ITER.   ENERGY(OLD)    ENERGY(NEW)      DE          GRADMAX     GRADNORM    GRADRMS     STEPMAX     STEPLEN     STEPRMS   CPU-time
   1  -278.49466579  -279.00038959    -0.50572379  2.08047246  2.31162490  0.38527082  0.24118669  0.30000000  0.15000000      4.23
   --><gradient name="MP2 GRADIENT" stateSymmetry="1" stateNumber="1" virial="-4.0589123111858">
      0.120489854917   0.000411115957   0.085227851543
     -0.388381511803  -0.586807326934  -0.040511004418
     -0.392424370615   0.584118763948  -0.040516310355
      0.660316027501   0.002277447029  -0.004200536770
   </gradient><!--
   --><opt energy="-279.00038959" type="MP2" line="0.0" convergence="0.3"
     gradient="1.20477351227058"/><!--
   --><jobstep command="HF-SCF" commandset="SCFPRO">
    <!--
    --><cml:molecule>
     <cml:symmetry pointGroup="C1"/>
     <cml:atomArray>
      <cml:atom id="a1" elementType="O" x3="-0.192694479214456E-01" y3="-0.668770821720523E-04"
        z3="-0.215044284955906E-01"/>
      <cml:atom id="a2" elementType="O" x3="0.561464149935689" y3="0.954499445146803"
        z3="0.201417887469628"/>
      <cml:atom id="a3" elementType="O" x3="0.568035416998662" y3="-0.950596207770656"
        z3="0.201422899835475"/>
      <cml:atom id="a4" elementType="N" x3="-1.10998640901291" y3="-0.382561029397538E-02"
        z3="0.194789661190487"/>
     </cml:atomArray>
     <cml:bondArray>
      <cml:bond atomRefs2="a1 a2"/>
      <cml:bond atomRefs2="a1 a3"/>
      <cml:bond atomRefs2="a1 a4"/>
     </cml:bondArray>
    </cml:molecule><!--
    --><property name="Energy" method="RHF" principal="true" stateSymmetry="1" stateNumber="1"
      value="-278.504750424893"/><!--
    --><property name="Dipole moment" method="RHF" principal="true" stateSymmetry="1"
      stateNumber="1"
      value="-0.286783694022191 -0.100385471968231E-02 -0.490783417990398"/><!--
    -->
    <time start="16:07:26" end="16:07:28" cpu="3.01" system="0.28" real="3.32"/>
    <storage units="megabyte" memory="257.84" sf="31.27" df="238.8" eaf="175.21" ga="0.0"/>
   </jobstep><!--
   --><jobstep command="MP2" commandset="CCSD">
    <!--
    --><property name="energy" method="Reference" stateSymmetry="1" stateNumber="1"
      value="-278.504750424895"/>
       <property name="singlet pair energy" method="MP2" stateSymmetry="1" stateNumber="1"
      value="-0.428054294468176"/>
       <property name="triplet pair energy" method="MP2" stateSymmetry="1" stateNumber="1"
      value="-0.311666773989735"/>
       <property name="correlation energy" method="MP2" stateSymmetry="1" stateNumber="1"
      value="-0.739721068457911"/>
       <property name="total energy" method="MP2" principal="true" stateSymmetry="1"
      stateNumber="1" value="-279.244471493353"/><!--
    --><property name="Dipole moment" method="!MP2" principal="true" stateSymmetry="1"
      stateNumber="1"
      value="0.293708093103237 0.992249557864394E-03 -0.422461440413363"/><!--
    -->
    <time start="16:07:28" end="16:07:29" cpu="1.27" system="0.1" real="1.38"/>
    <storage units="megabyte" memory="257.84" sf="31.5" df="238.8" eaf="175.21" ga="0.0"/>
   </jobstep><!--
   2  -279.00038959  -279.24447149    -0.24408191  1.07226728  1.20477351  0.20079559  0.25153447  0.30000000  0.15000000      8.52
   --><gradient name="MP2 GRADIENT" stateSymmetry="1" stateNumber="1"
     virial="-2.44241174255372">
      0.075509549740   0.000251754186  -0.021494640859
     -0.224984835997  -0.327329100156   0.001230012923
     -0.227243209356   0.325777759336   0.001226183992
      0.376718495612   0.001299586634   0.019038443945
   </gradient><!--
   --><opt energy="-279.24447149" type="MP2" line="0.0" convergence="0.3"
     gradient="0.68116144095929"/><!--
   --><jobstep command="HF-SCF" commandset="SCFPRO">
    <!--
    --><cml:molecule>
     <cml:symmetry pointGroup="C1"/>
     <cml:atomArray>
      <cml:atom id="a1" elementType="O" x3="-0.328098265146028E-01" y3="-0.111889700972147E-03"
        z3="0.441573863039599E-01"/>
      <cml:atom id="a2" elementType="O" x3="0.610505886979906" y3="1.0146152708875"
        z3="0.181105020580061"/>
      <cml:atom id="a3" elementType="O" x3="0.617490294214818" y3="-1.01037309857341"
        z3="0.181110474658194"/>
      <cml:atom id="a4" elementType="N" x3="-1.19494264468012" y3="-0.41195326131143E-02"
        z3="0.169753138457785"/>
     </cml:atomArray>
     <cml:bondArray>
      <cml:bond atomRefs2="a1 a2"/>
      <cml:bond atomRefs2="a1 a3"/>
      <cml:bond atomRefs2="a1 a4"/>
     </cml:bondArray>
    </cml:molecule><!--
    --><property name="Energy" method="RHF" principal="true" stateSymmetry="1" stateNumber="1"
      value="-278.624709315697"/><!--
    --><property name="Dipole moment" method="RHF" principal="true" stateSymmetry="1"
      stateNumber="1"
      value="-0.398410274483693 -0.138230395089758E-02 -0.385457187383707"/><!--
    -->
    <time start="16:07:31" end="16:07:32" cpu="2.89" system="0.32" real="3.22"/>
    <storage units="megabyte" memory="257.84" sf="31.5" df="238.8" eaf="175.21" ga="0.0"/>
   </jobstep><!--
   --><jobstep command="MP2" commandset="CCSD">
    <!--
    --><property name="energy" method="Reference" stateSymmetry="1" stateNumber="1"
      value="-278.624709315698"/>
       <property name="singlet pair energy" method="MP2" stateSymmetry="1" stateNumber="1"
      value="-0.438665826956913"/>
       <property name="triplet pair energy" method="MP2" stateSymmetry="1" stateNumber="1"
      value="-0.316382152121415"/>
       <property name="correlation energy" method="MP2" stateSymmetry="1" stateNumber="1"
      value="-0.755047979078328"/>
       <property name="total energy" method="MP2" principal="true" stateSymmetry="1"
      stateNumber="1" value="-279.379757294776"/><!--
    --><property name="Dipole moment" method="!MP2" principal="true" stateSymmetry="1"
      stateNumber="1"
      value="0.243536397728164 0.828293347200776E-03 -0.346818297526216"/><!--
    -->
    <time start="16:07:32" end="16:07:34" cpu="1.2" system="0.12" real="1.33"/>
    <storage units="megabyte" memory="257.84" sf="31.5" df="238.8" eaf="175.21" ga="0.0"/>
   </jobstep><!--
   3  -279.24447149  -279.37975729    -0.13528580  0.67238325  0.68116144  0.11352691  0.24820186  0.30000000  0.15000000     12.61
   --><gradient name="MP2 GRADIENT" stateSymmetry="1" stateNumber="1"
     virial="-1.25313608843887">
      0.054985751871   0.000187028971  -0.039976898877
     -0.112271001680  -0.160434787600   0.010224742059
     -0.113376963070   0.159659069672   0.010223547543
      0.170662212879   0.000588688958   0.019528609274
   </gradient><!--
   --><opt energy="-279.37975729" type="MP2" line="0.0" convergence="0.289247007543822"
     gradient="0.333207808762591"/><!--
   --><jobstep command="HF-SCF" commandset="SCFPRO">
    <!--
    --><cml:molecule>
     <cml:symmetry pointGroup="C1"/>
     <cml:atomArray>
      <cml:atom id="a1" elementType="O" x3="-0.508398032275496E-01" y3="-0.1730273965968E-03"
        z3="0.109806412198189"/>
      <cml:atom id="a2" elementType="O" x3="0.657540285612112" y3="1.07407283155308"
        z3="0.16093954894196"/>
      <cml:atom id="a3" elementType="O" x3="0.664933059991215" y3="-1.06950502245256"
        z3="0.160945355909811"/>
      <cml:atom id="a4" elementType="N" x3="-1.27138983237578" y3="-0.438403170392255E-02"
        z3="0.14443470295004"/>
     </cml:atomArray>
     <cml:bondArray>
      <cml:bond atomRefs2="a1 a2"/>
      <cml:bond atomRefs2="a1 a3"/>
      <cml:bond atomRefs2="a1 a4"/>
     </cml:bondArray>
    </cml:molecule><!--
    --><property name="Energy" method="RHF" principal="true" stateSymmetry="1" stateNumber="1"
      value="-278.674025807847"/><!--
    --><property name="Dipole moment" method="RHF" principal="true" stateSymmetry="1"
      stateNumber="1"
      value="-0.578309176318413 -0.199956257084721E-02 -0.308762054320855"/><!--
    -->
    <time start="16:07:36" end="16:07:37" cpu="2.85" system="0.36" real="3.28"/>
    <storage units="megabyte" memory="257.84" sf="31.5" df="238.8" eaf="175.21" ga="0.0"/>
   </jobstep><!--
   --><jobstep command="MP2" commandset="CCSD">
    <!--
    --><property name="energy" method="Reference" stateSymmetry="1" stateNumber="1"
      value="-278.674025807848"/>
       <property name="singlet pair energy" method="MP2" stateSymmetry="1" stateNumber="1"
      value="-0.446512138258189"/>
       <property name="triplet pair energy" method="MP2" stateSymmetry="1" stateNumber="1"
      value="-0.317209748569599"/>
       <property name="correlation energy" method="MP2" stateSymmetry="1" stateNumber="1"
      value="-0.763721886827788"/>
       <property name="total energy" method="MP2" principal="true" stateSymmetry="1"
      stateNumber="1" value="-279.437747694676"/><!--
    --><property name="Dipole moment" method="!MP2" principal="true" stateSymmetry="1"
      stateNumber="1"
      value="0.746866285139989E-01 0.250115434731524E-03 -0.294757685477242"/><!--
    -->
    <time start="16:07:37" end="16:07:38" cpu="1.32" system="0.09" real="1.42"/>
    <storage units="megabyte" memory="257.84" sf="31.5" df="238.8" eaf="175.21" ga="0.0"/>
   </jobstep><!--
   4  -279.37975729  -279.43774769    -0.05799040  0.32341502  0.33320781  0.05553463  0.24241413  0.28924701  0.14462350     16.77
   --><gradient name="MP2 GRADIENT" stateSymmetry="1" stateNumber="1"
     virial="-0.438313867814136">
      0.037622396594   0.000129354007  -0.017002264520
     -0.039316033209  -0.058848742110   0.004694632153
     -0.039722092187   0.058576926888   0.004694281127
      0.041415728801   0.000142461215   0.007613351240
   </gradient><!--
   --><opt energy="-279.43774769" type="MP2" line="0.0" convergence="0.148191887878566"
     gradient="0.116361016642356"/><!--
   --><jobstep command="HF-SCF" commandset="SCFPRO">
    <!--
    --><cml:molecule>
     <cml:symmetry pointGroup="C1"/>
     <cml:atomArray>
      <cml:atom id="a1" elementType="O" x3="-0.628791629904802E-01" y3="-0.214450503022878E-03"
        z3="0.143622876058435"/>
      <cml:atom id="a2" elementType="O" x3="0.678704630196972" y3="1.11045031761809"
        z3="0.150550764609266"/>
      <cml:atom id="a3" elementType="O" x3="0.686348525119329" y3="-1.10573606446875"
        z3="0.150556775043437"/>
      <cml:atom id="a4" elementType="N" x3="-1.30193028232582" y3="-0.448905264631225E-02"
        z3="0.131395604288862"/>
     </cml:atomArray>
     <cml:bondArray>
      <cml:bond atomRefs2="a1 a2"/>
      <cml:bond atomRefs2="a1 a3"/>
      <cml:bond atomRefs2="a1 a4"/>
     </cml:bondArray>
    </cml:molecule><!--
    --><property name="Energy" method="RHF" principal="true" stateSymmetry="1" stateNumber="1"
      value="-278.684404054695"/><!--
    --><property name="Dipole moment" method="RHF" principal="true" stateSymmetry="1"
      stateNumber="1"
      value="-0.66676500663608 -0.230431751993945E-02 -0.278447453458664"/><!--
    -->
    <time start="16:07:40" end="16:07:42" cpu="2.77" system="0.25" real="3.1"/>
    <storage units="megabyte" memory="257.84" sf="31.5" df="238.8" eaf="175.21" ga="0.0"/>
   </jobstep><!--
   --><jobstep command="MP2" commandset="CCSD">
    <!--
    --><property name="energy" method="Reference" stateSymmetry="1" stateNumber="1"
      value="-278.684404054695"/>
       <property name="singlet pair energy" method="MP2" stateSymmetry="1" stateNumber="1"
      value="-0.448521747628947"/>
       <property name="triplet pair energy" method="MP2" stateSymmetry="1" stateNumber="1"
      value="-0.315123564372536"/>
       <property name="correlation energy" method="MP2" stateSymmetry="1" stateNumber="1"
      value="-0.763645312001484"/>
       <property name="total energy" method="MP2" principal="true" stateSymmetry="1"
      stateNumber="1" value="-279.448049366697"/><!--
    --><property name="Dipole moment" method="!MP2" principal="true" stateSymmetry="1"
      stateNumber="1"
      value="-0.929833822775104E-01 -0.326819955166834E-03 -0.272939370972445"/><!--
    -->
    <time start="16:07:42" end="16:07:43" cpu="1.2" system="0.09" real="1.33"/>
    <storage units="megabyte" memory="257.84" sf="31.5" df="238.8" eaf="175.21" ga="0.0"/>
   </jobstep><!--
   5  -279.43774769  -279.44804937    -0.01030167  0.10718789  0.11636102  0.01939350  0.12509639  0.14819189  0.07409594     20.74
   --><gradient name="MP2 GRADIENT" stateSymmetry="1" stateNumber="1"
     virial="-0.140625596517826">
      0.031678319076   0.000109195418   0.000408460169
     -0.014792955620  -0.024694498184  -0.000173187363
     -0.014963394330   0.024592146428  -0.000173326175
     -0.001921969127  -0.000006843662  -0.000061946630
   </gradient><!--
   --><opt energy="-279.44804937" type="MP2" line="0.0"
     convergence="0.795631237607318E-01" gradient="0.516214990151268E-01"/><!--
   --><jobstep command="HF-SCF" commandset="SCFPRO">
    <!--
    --><cml:molecule>
     <cml:symmetry pointGroup="C1"/>
     <cml:atomArray>
      <cml:atom id="a1" elementType="O" x3="-0.71744786071982E-01" y3="-0.245050894455074E-03"
        z3="0.159458806186248"/>
      <cml:atom id="a2" elementType="O" x3="0.685872825667719" y3="1.13519118034068"
        z3="0.145649607421365"/>
      <cml:atom id="a3" elementType="O" x3="0.693687735705364" y3="-1.13042715821052"
        z3="0.145655756907497"/>
      <cml:atom id="a4" elementType="N" x3="-1.3075720653011" y3="-0.450822123570907E-02"
        z3="0.125361849484891"/>
     </cml:atomArray>
     <cml:bondArray>
      <cml:bond atomRefs2="a1 a2"/>
      <cml:bond atomRefs2="a1 a3"/>
      <cml:bond atomRefs2="a1 a4"/>
     </cml:bondArray>
    </cml:molecule><!--
    --><property name="Energy" method="RHF" principal="true" stateSymmetry="1" stateNumber="1"
      value="-278.688938601249"/><!--
    --><property name="Dipole moment" method="RHF" principal="true" stateSymmetry="1"
      stateNumber="1"
      value="-0.694652853127787 -0.240064731727643E-02 -0.265323362399128"/><!--
    -->
    <time start="16:07:45" end="16:07:46" cpu="2.73" system="0.35" real="3.22"/>
    <storage units="megabyte" memory="257.84" sf="31.5" df="238.8" eaf="175.21" ga="0.0"/>
   </jobstep><!--
   --><jobstep command="MP2" commandset="CCSD">
    <!--
    --><property name="energy" method="Reference" stateSymmetry="1" stateNumber="1"
      value="-278.688938601249"/>
       <property name="singlet pair energy" method="MP2" stateSymmetry="1" stateNumber="1"
      value="-0.448418901446066"/>
       <property name="triplet pair energy" method="MP2" stateSymmetry="1" stateNumber="1"
      value="-0.312859879575504"/>
       <property name="correlation energy" method="MP2" stateSymmetry="1" stateNumber="1"
      value="-0.761278781021571"/>
       <property name="total energy" method="MP2" principal="true" stateSymmetry="1"
      stateNumber="1" value="-279.45021738227"/><!--
    --><property name="Dipole moment" method="!MP2" principal="true" stateSymmetry="1"
      stateNumber="1"
      value="-0.229617561467192 -0.797558548011355E-03 -0.262427970824369"/><!--
    -->
    <time start="16:07:46" end="16:07:47" cpu="1.19" system="0.07" real="1.32"/>
    <storage units="megabyte" memory="257.84" sf="31.5" df="238.8" eaf="175.21" ga="0.0"/>
   </jobstep><!--
   6  -279.44804937  -279.45021738    -0.00216802  0.03773067  0.05162150  0.00860358  0.06092568  0.07956312  0.03978156     24.66
   --><gradient name="MP2 GRADIENT" stateSymmetry="1" stateNumber="1"
     virial="-0.370223685888343E-01">
      0.025916228754   0.000089339306   0.008157376528
     -0.006520637646  -0.011320633723  -0.002369056383
     -0.006598742854   0.011275507312  -0.002369118075
     -0.012796848254  -0.000044212894  -0.003419202071
   </gradient><!--
   --><opt energy="-279.45021738" type="MP2" line="0.0"
     convergence="0.577667385320089E-01" gradient="0.355841958345246E-01"/><!--
   --><jobstep command="HF-SCF" commandset="SCFPRO">
    <!--
    --><cml:molecule>
     <cml:symmetry pointGroup="C1"/>
     <cml:atomArray>
      <cml:atom id="a1" elementType="O" x3="-0.81032348117549E-01" y3="-0.277088432849989E-03"
        z3="0.165435268794738"/>
      <cml:atom id="a2" elementType="O" x3="0.688333492731107" y3="1.15481899659585"
        z3="0.143747048491629"/>
      <cml:atom id="a3" elementType="O" x3="0.696284239690287" y3="-1.15003780738115"
        z3="0.143753309201109"/>
      <cml:atom id="a4" elementType="N" x3="-1.30334167430385" y3="-0.449335078185365E-02"
        z3="0.123190393512523"/>
     </cml:atomArray>
     <cml:bondArray>
      <cml:bond atomRefs2="a1 a2"/>
      <cml:bond atomRefs2="a1 a3"/>
      <cml:bond atomRefs2="a1 a4"/>
     </cml:bondArray>
    </cml:molecule><!--
    --><property name="Energy" method="RHF" principal="true" stateSymmetry="1" stateNumber="1"
      value="-278.692527869589"/><!--
    --><property name="Dipole moment" method="RHF" principal="true" stateSymmetry="1"
      stateNumber="1"
      value="-0.697777964364178 -0.241176578291016E-02 -0.259840978737319"/><!--
    -->
    <time start="16:07:49" end="16:07:51" cpu="2.66" system="0.32" real="3.1"/>
    <storage units="megabyte" memory="257.84" sf="31.5" df="238.8" eaf="175.21" ga="0.0"/>
   </jobstep><!--
   --><jobstep command="MP2" commandset="CCSD">
    <!--
    --><property name="energy" method="Reference" stateSymmetry="1" stateNumber="1"
      value="-278.69252786959"/>
       <property name="singlet pair energy" method="MP2" stateSymmetry="1" stateNumber="1"
      value="-0.447740754089844"/>
       <property name="triplet pair energy" method="MP2" stateSymmetry="1" stateNumber="1"
      value="-0.310884843522476"/>
       <property name="correlation energy" method="MP2" stateSymmetry="1" stateNumber="1"
      value="-0.75862559761232"/>
       <property name="total energy" method="MP2" principal="true" stateSymmetry="1"
      stateNumber="1" value="-279.451153467203"/><!--
    --><property name="Dipole moment" method="!MP2" principal="true" stateSymmetry="1"
      stateNumber="1"
      value="-0.350921558561154 -0.121543889791356E-02 -0.257931737239357"/><!--
    -->
    <time start="16:07:51" end="16:07:53" cpu="1.33" system="0.13" real="2.41"/>
    <storage units="megabyte" memory="257.84" sf="31.5" df="238.8" eaf="175.21" ga="0.0"/>
   </jobstep><!--
   7  -279.45021738  -279.45115347    -0.00093608  0.03238118  0.03558420  0.00593070  0.03620880  0.05776674  0.02888337     28.66
   --><gradient name="MP2 GRADIENT" stateSymmetry="1" stateNumber="1"
     virial="-0.478610337363836E-02">
      0.015489872112   0.000053374500   0.010435185522
     -0.002870395922  -0.004462809688  -0.003061630673
     -0.002901064558   0.004442905892  -0.003061652722
     -0.009718411632  -0.000033470704  -0.004311902127
   </gradient><!--
   --><opt energy="-279.45115347" type="MP2" line="0.0"
     convergence="0.405409868283268E-01" gradient="0.231717923307739E-01"/><!--
   --><jobstep command="HF-SCF" commandset="SCFPRO">
    <!--
    --><cml:molecule>
     <cml:symmetry pointGroup="C1"/>
     <cml:atomArray>
      <cml:atom id="a1" elementType="O" x3="-0.896472329326998E-01" y3="-0.306755936487119E-03"
        z3="0.164131312265218"/>
      <cml:atom id="a2" elementType="O" x3="0.689112770742623" y3="1.16774031873476"
        z3="0.144063647467867"/>
      <cml:atom id="a3" elementType="O" x3="0.697152728523045" y3="-1.16295352423792"
        z3="0.14406997802448"/>
      <cml:atom id="a4" elementType="N" x3="-1.29637455633297" y3="-0.446928856034739E-02"
        z3="0.123861082242435"/>
     </cml:atomArray>
     <cml:bondArray>
      <cml:bond atomRefs2="a1 a2"/>
      <cml:bond atomRefs2="a1 a3"/>
      <cml:bond atomRefs2="a1 a4"/>
     </cml:bondArray>
    </cml:molecule><!--
    --><property name="Energy" method="RHF" principal="true" stateSymmetry="1" stateNumber="1"
      value="-278.694851296928"/><!--
    --><property name="Dipole moment" method="RHF" principal="true" stateSymmetry="1"
      stateNumber="1"
      value="-0.692400431824025 -0.239330256581214E-02 -0.260243409200285"/><!--
    -->
    <time start="16:07:55" end="16:07:56" cpu="2.85" system="0.42" real="3.28"/>
    <storage units="megabyte" memory="257.84" sf="31.5" df="238.8" eaf="175.21" ga="0.0"/>
   </jobstep><!--
   --><jobstep command="MP2" commandset="CCSD">
    <!--
    --><property name="energy" method="Reference" stateSymmetry="1" stateNumber="1"
      value="-278.694851296928"/>
       <property name="singlet pair energy" method="MP2" stateSymmetry="1" stateNumber="1"
      value="-0.447084695804886"/>
       <property name="triplet pair energy" method="MP2" stateSymmetry="1" stateNumber="1"
      value="-0.30960558721565"/>
       <property name="correlation energy" method="MP2" stateSymmetry="1" stateNumber="1"
      value="-0.756690283020536"/>
       <property name="total energy" method="MP2" principal="true" stateSymmetry="1"
      stateNumber="1" value="-279.451541579948"/><!--
    --><property name="Dipole moment" method="!MP2" principal="true" stateSymmetry="1"
      stateNumber="1"
      value="-0.442775160868834 -0.153198496477556E-02 -0.258814649060158"/><!--
    -->
    <time start="16:07:56" end="16:07:58" cpu="1.32" system="0.16" real="1.53"/>
    <storage units="megabyte" memory="257.84" sf="31.5" df="238.8" eaf="175.21" ga="0.0"/>
   </jobstep><!--
   8  -279.45115347  -279.45154158    -0.00038811  0.01959296  0.02317179  0.00386197  0.02644816  0.04054099  0.02027049     32.83
   --><gradient name="MP2 GRADIENT" stateSymmetry="1" stateNumber="1"
     virial="-0.998186782737586E-02">
      0.002080215530   0.000007158640   0.009242680704
     -0.001243030529  -0.001329073790  -0.002794611458
     -0.001252083389   0.001320426520  -0.002794616620
      0.000414898388   0.000001488629  -0.003653452626
   </gradient><!--
   --><opt energy="-279.45154158" type="MP2" line="0.0"
     convergence="0.118245613415632E-01" gradient="0.112034320528571E-01"/><!--
   --><jobstep command="HF-SCF" commandset="SCFPRO">
    <!--
    --><cml:molecule>
     <cml:symmetry pointGroup="C1"/>
     <cml:atomArray>
      <cml:atom id="a1" elementType="O" x3="-0.919228583989965E-01" y3="-0.314578976425789E-03"
        z3="0.159802765752862"/>
      <cml:atom id="a2" elementType="O" x3="0.689283558870309" y3="1.16933706877329"
        z3="0.145355133982037"/>
      <cml:atom id="a3" elementType="O" x3="0.697334411791824" y3="-1.16454900617492"
        z3="0.14536147138663"/>
      <cml:atom id="a4" elementType="N" x3="-1.29445140226314" y3="-0.446273362194686E-02"
        z3="0.125606648878472"/>
     </cml:atomArray>
     <cml:bondArray>
      <cml:bond atomRefs2="a1 a2"/>
      <cml:bond atomRefs2="a1 a3"/>
      <cml:bond atomRefs2="a1 a4"/>
     </cml:bondArray>
    </cml:molecule><!--
    --><property name="Energy" method="RHF" principal="true" stateSymmetry="1" stateNumber="1"
      value="-278.695270211344"/><!--
    --><property name="Dipole moment" method="RHF" principal="true" stateSymmetry="1"
      stateNumber="1"
      value="-0.690597972746312 -0.238698227983303E-02 -0.263849772489893"/><!--
    -->
    <time start="16:07:59" end="16:08:01" cpu="2.83" system="0.24" real="3.08"/>
    <storage units="megabyte" memory="257.84" sf="31.5" df="238.8" eaf="175.21" ga="0.0"/>
   </jobstep><!--
   --><jobstep command="MP2" commandset="CCSD">
    <!--
    --><property name="energy" method="Reference" stateSymmetry="1" stateNumber="1"
      value="-278.695270211343"/>
       <property name="singlet pair energy" method="MP2" stateSymmetry="1" stateNumber="1"
      value="-0.446931673370074"/>
       <property name="triplet pair energy" method="MP2" stateSymmetry="1" stateNumber="1"
      value="-0.309429904092521"/>
       <property name="correlation energy" method="MP2" stateSymmetry="1" stateNumber="1"
      value="-0.756361577462595"/>
       <property name="total energy" method="MP2" principal="true" stateSymmetry="1"
      stateNumber="1" value="-279.451631788806"/><!--
    --><property name="Dipole moment" method="!MP2" principal="true" stateSymmetry="1"
      stateNumber="1"
      value="-0.461411221015501 -0.159624833766526E-02 -0.262415860440777"/><!--
    -->
    <time start="16:08:01" end="16:08:02" cpu="1.23" system="0.12" real="1.36"/>
    <storage units="megabyte" memory="257.84" sf="31.5" df="238.8" eaf="175.21" ga="0.0"/>
   </jobstep><!--
   9  -279.45154158  -279.45163179    -0.00009021  0.01067986  0.01120343  0.00186724  0.00942792  0.01182456  0.00591228     36.88
   --><gradient name="MP2 GRADIENT" stateSymmetry="1" stateNumber="1"
     virial="-0.173463102456404E-01">
     -0.002176990796  -0.000007499434   0.007217996510
     -0.001016406703  -0.001145142761  -0.002212109042
     -0.001024243961   0.001138074559  -0.002212114108
      0.004217641460   0.000014567636  -0.002793773361
   </gradient><!--
   --><opt energy="-279.45163179" type="MP2" line="0.0"
     convergence="0.201083342470588E-01" gradient="0.984420130037114E-02"/><!--
   --><jobstep command="HF-SCF" commandset="SCFPRO">
    <!--
    --><cml:molecule>
     <cml:symmetry pointGroup="C1"/>
     <cml:atomArray>
      <cml:atom id="a1" elementType="O" x3="-0.933844273483261E-01" y3="-0.319604595663983E-03"
        z3="0.150725370169258"/>
      <cml:atom id="a2" elementType="O" x3="0.689795437151712" y3="1.16925278044697"
        z3="0.148093406339778"/>
      <cml:atom id="a3" elementType="O" x3="0.697845483905108" y3="-1.16446107442156"
        z3="0.148099740543121"/>
      <cml:atom id="a4" elementType="N" x3="-1.2940127837085" y3="-0.446135142974975E-02"
        z3="0.129207502947843"/>
     </cml:atomArray>
     <cml:bondArray>
      <cml:bond atomRefs2="a1 a2"/>
      <cml:bond atomRefs2="a1 a3"/>
      <cml:bond atomRefs2="a1 a4"/>
     </cml:bondArray>
    </cml:molecule><!--
    --><property name="Energy" method="RHF" principal="true" stateSymmetry="1" stateNumber="1"
      value="-278.695446695588"/><!--
    --><property name="Dipole moment" method="RHF" principal="true" stateSymmetry="1"
      stateNumber="1"
      value="-0.689945525912428 -0.238453377476595E-02 -0.271806507036136"/><!--
    -->
    <time start="16:08:04" end="16:08:05" cpu="2.87" system="0.24" real="3.12"/>
    <storage units="megabyte" memory="257.84" sf="31.5" df="238.8" eaf="175.21" ga="0.0"/>
   </jobstep><!--
   --><jobstep command="MP2" commandset="CCSD">
    <!--
    --><property name="energy" method="Reference" stateSymmetry="1" stateNumber="1"
      value="-278.695446695587"/>
       <property name="singlet pair energy" method="MP2" stateSymmetry="1" stateNumber="1"
      value="-0.44688583803863"/>
       <property name="triplet pair energy" method="MP2" stateSymmetry="1" stateNumber="1"
      value="-0.309406850076825"/>
       <property name="correlation energy" method="MP2" stateSymmetry="1" stateNumber="1"
      value="-0.756292688115455"/>
       <property name="total energy" method="MP2" principal="true" stateSymmetry="1"
      stateNumber="1" value="-279.451739383702"/><!--
    --><property name="Dipole moment" method="!MP2" principal="true" stateSymmetry="1"
      stateNumber="1"
      value="-0.469586834494299 -0.162451784144053E-02 -0.270095212135006"/><!--
    -->
    <time start="16:08:05" end="16:08:07" cpu="1.31" system="0.1" real="1.42"/>
    <storage units="megabyte" memory="257.84" sf="31.5" df="238.8" eaf="175.21" ga="0.0"/>
   </jobstep><!--
  10  -279.45163179  -279.45173938    -0.00010759  0.00838377  0.00984420  0.00164070  0.01981978  0.02010833  0.01005417     41.07
   --><gradient name="MP2 GRADIENT" stateSymmetry="1" stateNumber="1"
     virial="-0.214586264813545E-01">
     -0.004662892479  -0.000016050080   0.003231065614
     -0.000732287233  -0.001228095033  -0.001007783901
     -0.000740790083   0.001223020320  -0.001007790751
      0.006135969795   0.000021124792  -0.001215490962
   </gradient><!--
   --><opt energy="-279.45173938" type="MP2" line="0.0"
     convergence="0.145912907979698E-01" gradient="0.879948180196234E-02"/><!--
   --><jobstep command="HF-SCF" commandset="SCFPRO">
    <!--
    --><cml:molecule>
     <cml:symmetry pointGroup="C1"/>
     <cml:atomArray>
      <cml:atom id="a1" elementType="O" x3="-0.929298484222941E-01" y3="-0.318070234653019E-03"
        z3="0.144286546595014"/>
      <cml:atom id="a2" elementType="O" x3="0.690444169924355" y3="1.16925460266516"
        z3="0.150046518820358"/>
      <cml:atom id="a3" elementType="O" x3="0.698494180277618" y3="-1.16445838104081"
        z3="0.150052852585426"/>
      <cml:atom id="a4" elementType="N" x3="-1.29576479177968" y3="-0.446740138969814E-02"
        z3="0.131740101999203"/>
     </cml:atomArray>
     <cml:bondArray>
      <cml:bond atomRefs2="a1 a2"/>
      <cml:bond atomRefs2="a1 a3"/>
      <cml:bond atomRefs2="a1 a4"/>
     </cml:bondArray>
    </cml:molecule><!--
    --><property name="Energy" method="RHF" principal="true" stateSymmetry="1" stateNumber="1"
      value="-278.69535243842"/><!--
    --><property name="Dipole moment" method="RHF" principal="true" stateSymmetry="1"
      stateNumber="1"
      value="-0.691066848482249 -0.238838242800453E-02 -0.277528851937188"/><!--
    -->
    <time start="16:08:09" end="16:08:10" cpu="2.82" system="0.39" real="3.21"/>
    <storage units="megabyte" memory="257.84" sf="31.5" df="238.8" eaf="175.21" ga="0.0"/>
   </jobstep><!--
   --><jobstep command="MP2" commandset="CCSD">
    <!--
    --><property name="energy" method="Reference" stateSymmetry="1" stateNumber="1"
      value="-278.69535243842"/>
       <property name="singlet pair energy" method="MP2" stateSymmetry="1" stateNumber="1"
      value="-0.447000041218872"/>
       <property name="triplet pair energy" method="MP2" stateSymmetry="1" stateNumber="1"
      value="-0.309437046479939"/>
       <property name="correlation energy" method="MP2" stateSymmetry="1" stateNumber="1"
      value="-0.756437087698811"/>
       <property name="total energy" method="MP2" principal="true" stateSymmetry="1"
      stateNumber="1" value="-279.451789526119"/><!--
    --><property name="Dipole moment" method="!MP2" principal="true" stateSymmetry="1"
      stateNumber="1"
      value="-0.465360794214569 -0.161005672153701E-02 -0.275506628659073"/><!--
    -->
    <time start="16:08:10" end="16:08:11" cpu="1.22" system="0.12" real="1.36"/>
    <storage units="megabyte" memory="257.84" sf="31.5" df="238.8" eaf="175.21" ga="0.0"/>
   </jobstep><!--
  11  -279.45173938  -279.45178953    -0.00005014  0.00681685  0.00879948  0.00146658  0.01409130  0.01459129  0.00729565     45.11
   --><gradient name="MP2 GRADIENT" stateSymmetry="1" stateNumber="1"
     virial="-0.131670530953133E-01">
     -0.002871738191  -0.000009891942   0.000455372794
     -0.000353017314  -0.000899352578  -0.000149763654
     -0.000359274853   0.000896922648  -0.000149768595
      0.003584030358   0.000012321872  -0.000155840545
   </gradient><!--
   --><opt energy="-279.45178953" type="MP2" line="0.0"
     convergence="0.548911628708671E-02" gradient="0.482036501759412E-02"/><!--
   --><jobstep command="HF-SCF" commandset="SCFPRO">
    <!--
    --><cml:molecule>
     <cml:symmetry pointGroup="C1"/>
     <cml:atomArray>
      <cml:atom id="a1" elementType="O" x3="-0.920807166960317E-01" y3="-0.315175797768758E-03"
        z3="0.142714942223941"/>
      <cml:atom id="a2" elementType="O" x3="0.69074053819451" y3="1.17028806448742"
        z3="0.150526865926042"/>
      <cml:atom id="a3" elementType="O" x3="0.698797758425211" y3="-1.16548980339654"
        z3="0.150533206099281"/>
      <cml:atom id="a4" elementType="N" x3="-1.29721386992369" y3="-0.447233529311292E-02"
        z3="0.132351005750736"/>
     </cml:atomArray>
     <cml:bondArray>
      <cml:bond atomRefs2="a1 a2"/>
      <cml:bond atomRefs2="a1 a3"/>
      <cml:bond atomRefs2="a1 a4"/>
     </cml:bondArray>
    </cml:molecule><!--
    --><property name="Energy" method="RHF" principal="true" stateSymmetry="1" stateNumber="1"
      value="-278.695283920443"/><!--
    --><property name="Dipole moment" method="RHF" principal="true" stateSymmetry="1"
      stateNumber="1"
      value="-0.69195673984588 -0.239153713848474E-02 -0.278923398607407"/><!--
    -->
    <time start="16:08:13" end="16:08:15" cpu="2.92" system="0.33" real="3.26"/>
    <storage units="megabyte" memory="257.84" sf="31.5" df="238.8" eaf="175.21" ga="0.0"/>
   </jobstep><!--
   --><jobstep command="MP2" commandset="CCSD">
    <!--
    --><property name="energy" method="Reference" stateSymmetry="1" stateNumber="1"
      value="-278.695283920442"/>
       <property name="singlet pair energy" method="MP2" stateSymmetry="1" stateNumber="1"
      value="-0.447104551904964"/>
       <property name="triplet pair energy" method="MP2" stateSymmetry="1" stateNumber="1"
      value="-0.309413141620038"/>
       <property name="correlation energy" method="MP2" stateSymmetry="1" stateNumber="1"
      value="-0.756517693525002"/>
       <property name="total energy" method="MP2" principal="true" stateSymmetry="1"
      stateNumber="1" value="-279.451801613967"/><!--
    --><property name="Dipole moment" method="!MP2" principal="true" stateSymmetry="1"
      stateNumber="1"
      value="-0.461949192431393 -0.159831612836538E-02 -0.276802301415819"/><!--
    -->
    <time start="16:08:15" end="16:08:16" cpu="1.26" system="0.09" real="1.36"/>
    <storage units="megabyte" memory="257.84" sf="31.5" df="238.8" eaf="175.21" ga="0.0"/>
   </jobstep><!--
  12  -279.45178953  -279.45180161    -0.00001209  0.00408604  0.00482036  0.00080339  0.00345431  0.00548912  0.00274456     49.28
   --><gradient name="MP2 GRADIENT" stateSymmetry="1" stateNumber="1"
     virial="-0.343631527799021E-02">
     -0.000637525999  -0.000002212575  -0.000212996743
     -0.000090331559  -0.000294070406   0.000061961930
     -0.000092383811   0.000293463005   0.000061960535
      0.000820241369   0.000002819975   0.000089074278
   </gradient><!--
   --><opt energy="-279.45180161" type="MP2" line="0.0"
     convergence="0.187942700952639E-02" gradient="0.115304851412613E-02"/><!--
   --><jobstep command="HF-SCF" commandset="SCFPRO">
    <!--
    --><cml:molecule>
     <cml:symmetry pointGroup="C1"/>
     <cml:atomArray>
      <cml:atom id="a1" elementType="O" x3="-0.918157118429403E-01" y3="-0.314264323297712E-03"
        z3="0.143050020815927"/>
      <cml:atom id="a2" elementType="O" x3="0.690776296406593" y3="1.17085810726976"
        z3="0.150426538163175"/>
      <cml:atom id="a3" elementType="O" x3="0.698837490447377" y3="-1.16605960873571"
        z3="0.150432881805808"/>
      <cml:atom id="a4" elementType="N" x3="-1.29755436501103" y3="-0.447348421074992E-02"
        z3="0.132216579215091"/>
     </cml:atomArray>
     <cml:bondArray>
      <cml:bond atomRefs2="a1 a2"/>
      <cml:bond atomRefs2="a1 a3"/>
      <cml:bond atomRefs2="a1 a4"/>
     </cml:bondArray>
    </cml:molecule><!--
    --><property name="Energy" method="RHF" principal="true" stateSymmetry="1" stateNumber="1"
      value="-278.695281215379"/><!--
    --><property name="Dipole moment" method="RHF" principal="true" stateSymmetry="1"
      stateNumber="1"
      value="-0.692128176601948 -0.239217576566716E-02 -0.278633763803866"/><!--
    -->
    <time start="16:08:18" end="16:08:19" cpu="2.91" system="0.23" real="3.15"/>
    <storage units="megabyte" memory="257.84" sf="31.5" df="238.8" eaf="175.21" ga="0.0"/>
   </jobstep><!--
   --><jobstep command="MP2" commandset="CCSD">
    <!--
    --><property name="energy" method="Reference" stateSymmetry="1" stateNumber="1"
      value="-278.695281215379"/>
       <property name="singlet pair energy" method="MP2" stateSymmetry="1" stateNumber="1"
      value="-0.447130973904537"/>
       <property name="triplet pair energy" method="MP2" stateSymmetry="1" stateNumber="1"
      value="-0.309390332553695"/>
       <property name="correlation energy" method="MP2" stateSymmetry="1" stateNumber="1"
      value="-0.756521306458232"/>
       <property name="total energy" method="MP2" principal="true" stateSymmetry="1"
      stateNumber="1" value="-279.451802521837"/><!--
    --><property name="Dipole moment" method="!MP2" principal="true" stateSymmetry="1"
      stateNumber="1"
      value="-0.461629791965671 -0.159719164659741E-02 -0.276520298193409"/><!--
    -->
    <time start="16:08:19" end="16:08:20" cpu="1.22" system="0.12" real="1.34"/>
    <storage units="megabyte" memory="257.84" sf="31.5" df="238.8" eaf="175.21" ga="0.0"/>
   </jobstep><!--
  13  -279.45180161  -279.45180252    -0.00000091  0.00090179  0.00115305  0.00019217  0.00132978  0.00187943  0.00093971     53.42
   --><gradient name="MP2 GRADIENT" stateSymmetry="1" stateNumber="1"
     virial="-0.344259858053163E-03">
      0.000006487136   0.000000006539  -0.000061446682
     -0.000020791462  -0.000045640504   0.000018400467
     -0.000021114728   0.000045510677   0.000018400447
      0.000035419054   0.000000123289   0.000024645767
   </gradient><!--
   --><opt energy="-279.45180252" type="MP2" line="0.0"
     convergence="0.381335048617024E-03" gradient="0.106720493814992E-03"/><!--
   --><jobstep command="HF-SCF" commandset="SCFPRO">
    <!--
    --><cml:molecule>
     <cml:symmetry pointGroup="C1"/>
     <cml:atomArray>
      <cml:atom id="a1" elementType="O" x3="-0.918094327447519E-01" y3="-0.314237449289655E-03"
        z3="0.143183754543242"/>
      <cml:atom id="a2" elementType="O" x3="0.690782101473612" y3="1.17094843486669"
        z3="0.150386144367222"/>
      <cml:atom id="a3" elementType="O" x3="0.698843926019618" y3="-1.16614990163573"
        z3="0.150392488566172"/>
      <cml:atom id="a4" elementType="N" x3="-1.29757288474848" y3="-0.44735457816766E-02"
        z3="0.132163632523364"/>
     </cml:atomArray>
     <cml:bondArray>
      <cml:bond atomRefs2="a1 a2"/>
      <cml:bond atomRefs2="a1 a3"/>
      <cml:bond atomRefs2="a1 a4"/>
     </cml:bondArray>
    </cml:molecule><!--
    --><property name="Energy" method="RHF" principal="true" stateSymmetry="1" stateNumber="1"
      value="-278.695285023719"/><!--
    --><property name="Dipole moment" method="RHF" principal="true" stateSymmetry="1"
      stateNumber="1"
      value="-0.692132098966713 -0.23921968163863E-02 -0.278517047600387"/><!--
    -->
    <time start="16:08:24" end="16:08:26" cpu="3.89" system="1.22" real="5.42"/>
    <storage units="megabyte" memory="257.84" sf="31.5" df="238.8" eaf="175.21" ga="0.0"/>
   </jobstep><!--
   --><jobstep command="MP2" commandset="CCSD">
    <!--
    --><property name="energy" method="Reference" stateSymmetry="1" stateNumber="1"
      value="-278.69528502372"/>
       <property name="singlet pair energy" method="MP2" stateSymmetry="1" stateNumber="1"
      value="-0.447132338008544"/>
       <property name="triplet pair energy" method="MP2" stateSymmetry="1" stateNumber="1"
      value="-0.309385151625638"/>
       <property name="correlation energy" method="MP2" stateSymmetry="1" stateNumber="1"
      value="-0.756517489634182"/>
       <property name="total energy" method="MP2" principal="true" stateSymmetry="1"
      stateNumber="1" value="-279.451802513354"/><!--
    --><property name="Dipole moment" method="!MP2" principal="true" stateSymmetry="1"
      stateNumber="1"
      value="-0.461809570184888 -0.159778128613347E-02 -0.276409642802896"/><!--
    -->
    <time start="16:08:26" end="16:08:27" cpu="1.34" system="0.16" real="1.51"/>
    <storage units="megabyte" memory="257.84" sf="31.5" df="238.8" eaf="175.21" ga="0.0"/>
   </jobstep><!--
  14  -279.45180252  -279.45180251     0.00000001  0.00007766  0.00010672  0.00001779  0.00029230  0.00038134  0.00019067     58.64

 END OF GEOMETRY OPTIMIZATION.

 Current geometry (xyz format, in Angstrom)

    4
 MP2/AVDZ  ENERGY=-279.45180251
 O         -0.0918094327       -0.0003142374        0.1431837545
 O          0.6907821015        1.1709484349        0.1503861444
 O          0.6988439260       -1.1661499016        0.1503924886
 N         -1.2975728847       -0.0044735458        0.1321636325

 **********************************************************************************************************************************

 Geometry written to block  1 of record 700


 **********************************************************************************************************************************
 DATASETS  * FILE   NREC   LENGTH (MB)   RECORD NAMES
              1      20       28.77       500      610      700      900      950      970     1000      129      960     1100   
                                          VAR    BASINP    GEOM    SYMINP    ZMAT    AOBASIS   BASIS     P2S    ABASIS      S 
                                         1400     1410     1200     1210     1080     1600     1650     1700     1380     5200   
                                           T        V       H0       H01     AOSYM     SMH    MOLCAS    OPER     JKOP      MP2  

              2       7        0.94       700     1000      520     2100     4100     4101     9001   
                                         GEOM     BASIS   MCVARS     RHF     CPHF     CPHF    DEN_MP2    

 PROGRAMS   *        TOTAL      OPTG       MP2        HF       INT
 CPU TIMES  *        61.57     58.64      1.28      0.42      0.73
 REAL TIME  *        71.33 SEC
 DISK USED  *       414.02 MB      
 SF USED    *        31.50 MB      
 GA USED    *         0.00 MB       (max)       0.00 MB       (current)
 **********************************************************************************************************************************
   --><time start="16:07:20" end="16:08:27" cpu="58.64" system="6.92" real="67.72"/><!--
   --><storage units="megabyte" memory="257.84" sf="31.5" df="238.8" eaf="175.21" ga="0.0"/><!--
  --></jobstep><!--
  --><jobstep command="FREQ" commandset="FREQ">
   <!--


 PROGRAM * HESSIAN

 Computing numerical hessian using default procedure for command MP2

 Using no symmetry in wavefunction calculations

 Running default procedure: HF-SCF000  MP2
 

 Numerically approximating hessian using central gradient differences

 Task list generated. Total number of displacements:     24

   --><gradient name="MP2 GRADIENT" stateSymmetry="1" stateNumber="1"
     virial="0.914828802421974E-02">
      0.005852104090   0.000009009700   0.000034279827
     -0.000727135000   0.000278194061  -0.000000877104
     -0.000725613499  -0.000276234556  -0.000000879000
     -0.004399355591  -0.000010969205  -0.000032523723
   </gradient><!--
   --><gradient name="MP2 GRADIENT" stateSymmetry="1" stateNumber="1"
     virial="-0.97686187206375E-02">
     -0.005978480913  -0.000009410016  -0.000042236351
      0.000687859172  -0.000313204438   0.000002472721
      0.000686079644   0.000310913392   0.000002474849
      0.004604542097   0.000011701061   0.000037288781
   </gradient><!--
   --><gradient name="MP2 GRADIENT" stateSymmetry="1" stateNumber="1"
     virial="-0.550800095124315E-04">
      0.000043783791   0.003246101816  -0.000002757622
     -0.000067872905  -0.001036050001   0.000000326832
      0.000043094428  -0.000993475935   0.000001355720
     -0.000019005314  -0.001216575880   0.000001075070
   </gradient><!--
   --><gradient name="MP2 GRADIENT" stateSymmetry="1" stateNumber="1"
     virial="-0.120390882328302E-03">
      0.000025365306  -0.003245934418  -0.000003013445
      0.000041126341   0.000991778464   0.000001364335
     -0.000070163217   0.001037658456   0.000000335907
      0.000003671571   0.001216497498   0.000001313203
   </gradient><!--
   --><gradient name="MP2 GRADIENT" stateSymmetry="1" stateNumber="1"
     virial="0.606055280060066E-04">
      0.000088024943   0.000000287235   0.001726184960
     -0.000012693904  -0.000013902866  -0.000522153107
     -0.000012795745   0.000013828451  -0.000522152807
     -0.000062535295  -0.000000212820  -0.000681879045
   </gradient><!--
    5 tasks completed, CPU=26s Elapsed=30s
   --><gradient name="MP2 GRADIENT" stateSymmetry="1" stateNumber="1"
     virial="-0.11225948479348E-03">
      0.000011578138   0.000000031864  -0.001731262274
     -0.000009344765  -0.000019296066   0.000523864180
     -0.000009483214   0.000019239361   0.000523864669
      0.000007249840   0.000000024841   0.000683533426
   </gradient><!--
   --><gradient name="MP2 GRADIENT" stateSymmetry="1" stateNumber="1"
     virial="0.476318215742394E-02">
     -0.000662973406  -0.000050750711  -0.000004483452
      0.001237405690   0.000519543599   0.000010787031
      0.000194573568   0.000125755197   0.000001347870
     -0.000769005852  -0.000594548085  -0.000007651450
   </gradient><!--
   --><gradient name="MP2 GRADIENT" stateSymmetry="1" stateNumber="1"
     virial="-0.491828068836956E-02">
      0.000751769634   0.000058243405  -0.000001112687
     -0.001276799682  -0.000562951425  -0.000009257763
     -0.000216359406  -0.000100248879   0.000000387715
      0.000741389454   0.000604956898   0.000009982735
   </gradient><!--
   --><gradient name="MP2 GRADIENT" stateSymmetry="1" stateNumber="1"
     virial="0.595509084392695E-02">
      0.000335132402  -0.001005094489  -0.000000137361
      0.000524119102   0.001323590604   0.000005793605
     -0.000119331334  -0.000331078121  -0.000000142953
     -0.000739920171   0.000012582006  -0.000005513291
   </gradient><!--
   --><gradient name="MP2 GRADIENT" stateSymmetry="1" stateNumber="1"
     virial="-0.615930369289E-02">
     -0.000255852383   0.001022762226  -0.000005541378
     -0.000558332247  -0.001378386873  -0.000004171269
      0.000098949904   0.000369730853   0.000001896009
      0.000715234726  -0.000014106206   0.000007816638
   </gradient><!--
   10 tasks completed, CPU=52s Elapsed=56s
   --><gradient name="MP2 GRADIENT" stateSymmetry="1" stateNumber="1"
     virial="0.928270272257297E-05">
      0.000037564902  -0.000001506261  -0.000525700526
      0.000001312378  -0.000006586368   0.000159135585
     -0.000009888838   0.000014075425   0.000159144257
     -0.000028988443  -0.000005982796   0.000207420684
   </gradient><!--
   --><gradient name="MP2 GRADIENT" stateSymmetry="1" stateNumber="1"
     virial="-0.795943977204389E-04">
      0.000040952224  -0.000000474328   0.000520018637
     -0.000018824437  -0.000016543617  -0.000157315297
     -0.000010758846   0.000012025226  -0.000157375440
     -0.000011368941   0.000004992719  -0.000205327899
   </gradient><!--
   --><gradient name="MP2 GRADIENT" stateSymmetry="1" stateNumber="1"
     virial="0.480432415473406E-02">
     -0.000661244572   0.000053093824  -0.000004465135
      0.000194647290  -0.000121981173   0.000001341175
      0.001244603262  -0.000520169355   0.000010823229
     -0.000778005981   0.000589056704  -0.000007699269
   </gradient><!--
   --><gradient name="MP2 GRADIENT" stateSymmetry="1" stateNumber="1"
     virial="-0.496048529344972E-02">
      0.000750202280  -0.000060151494  -0.000001130645
     -0.000216284950   0.000096351438   0.000000393812
     -0.001284546669   0.000563518953  -0.000009295818
      0.000750629338  -0.000599718896   0.000010032650
   </gradient><!--
   --><gradient name="MP2 GRADIENT" stateSymmetry="1" stateNumber="1"
     virial="-0.612522688489121E-02">
     -0.000253721957  -0.001024095975  -0.000005550483
      0.000102944177  -0.000369791605   0.000001901833
     -0.000559002514   0.001370709452  -0.000004106996
      0.000709780294   0.000023178128   0.000007755646
   </gradient><!--
   15 tasks completed, CPU=1m 18s Elapsed=1m 24s
   --><gradient name="MP2 GRADIENT" stateSymmetry="1" stateNumber="1"
     virial="0.592207727073291E-02">
      0.000333010148   0.001007055848  -0.000000129109
     -0.000123007404   0.000331016876  -0.000000149242
      0.000524640026  -0.001316321780   0.000005732400
     -0.000734642770  -0.000021750944  -0.000005454049
   </gradient><!--
   --><gradient name="MP2 GRADIENT" stateSymmetry="1" stateNumber="1"
     virial="0.931652540142375E-05">
      0.000037555048   0.000001743990  -0.000525701176
     -0.000009786383  -0.000014129501   0.000159144487
      0.000001264155   0.000006599263   0.000159135726
     -0.000029032819   0.000005786248   0.000207420963
   </gradient><!--
   --><gradient name="MP2 GRADIENT" stateSymmetry="1" stateNumber="1"
     virial="-0.796274274673852E-04">
      0.000040946396   0.000000729478   0.000520018863
     -0.000010669389  -0.000012090850  -0.000157375483
     -0.000018946984   0.000016430525  -0.000157315478
     -0.000011330024  -0.000005069153  -0.000205327901
   </gradient><!--
   --><gradient name="MP2 GRADIENT" stateSymmetry="1" stateNumber="1"
     virial="-0.194996764589262E-01">
     -0.004587320714  -0.000011668732  -0.000039047769
     -0.000770540909  -0.000743072378  -0.000008015540
     -0.000779829815   0.000737615432  -0.000008057281
      0.006137691437   0.000017125678   0.000055120590
   </gradient><!--
   --><gradient name="MP2 GRADIENT" stateSymmetry="1" stateNumber="1"
     virial="0.188636511042154E-01">
      0.004416921123   0.000011001385   0.000030771287
      0.000740083369   0.000711845454   0.000009628878
      0.000749036925  -0.000706569457   0.000009670373
     -0.005906041416  -0.000016277381  -0.000050070538
   </gradient><!--
   20 tasks completed, CPU=1m 43s Elapsed=1m 51s
   --><gradient name="MP2 GRADIENT" stateSymmetry="1" stateNumber="1"
     virial="-0.950212939430419E-04">
      0.000034043672  -0.001216252119  -0.000002906376
     -0.000611396962   0.000000525769  -0.000004627767
      0.000582688460   0.000035080204   0.000006292180
     -0.000005335171   0.001180646146   0.000001241963
   </gradient><!--
   --><gradient name="MP2 GRADIENT" stateSymmetry="1" stateNumber="1"
     virial="0.371804503836585E-04">
      0.000056709298   0.001216595330  -0.000002668184
      0.000588065137  -0.000026046683   0.000006350967
     -0.000606066678  -0.000009710406  -0.000004566916
     -0.000038707757  -0.001180838241   0.000000884134
   </gradient><!--
   --><gradient name="MP2 GRADIENT" stateSymmetry="1" stateNumber="1"
     virial="-0.1870139522953E-03">
      0.000012961078   0.000000033602  -0.000685493543
     -0.000017845665  -0.000019154509   0.000207339414
     -0.000017986367   0.000019043084   0.000207339861
      0.000022870954   0.000000077823   0.000270814269
   </gradient><!--
   --><gradient name="MP2 GRADIENT" stateSymmetry="1" stateNumber="1"
     virial="0.163689028840644E-03">
      0.000082731090   0.000000271517   0.000680290834
     -0.000000214126  -0.000005826127  -0.000205528042
     -0.000000256904   0.000005834496  -0.000205527576
     -0.000082260060  -0.000000279885  -0.000269235215
   </gradient><!--

 Numerical MP2 hessian completed. CPU-time:   124.69 sec, Elapsed:   132.88 sec

 MP2 hessian saved to record  5300.2

 FREQUENCIES * CALCULATION OF HARMONIC VIBRATIONAL SPECTRA FOR MP2


 Permanent Dipole Moment [debye]
   1-  3   -1.173726   -0.004061   -0.702517

 Dipole Moment Norm    1.3679107 [debye]

 Dipole Moment Derivatives [debye/ang]
                   1             2             3             4             5             6             7             8
         1    10.0038952     0.0123145     0.0875274    -4.0435361    -3.3804843    -0.0190047    -4.0750210     3.3835017
         2     0.0123145     6.4298674     0.0002855    -1.1802352    -4.5129435    -0.0108617     1.1832556    -4.4814585
         3     0.0875993     0.0002844     0.4327871    -0.0188278    -0.0310077    -1.9893803    -0.0190477     0.0308911
                   9            10            11            12
         1    -0.0190988    -6.6854907    -0.0154434    -0.0496494
         2     0.0107432    -0.0153436    -2.2375659    -0.0001673
         3    -1.9893841    -0.0496968    -0.0001702    -1.2567943

 Projecting out rotations and translations

   Low Vibration      Wavenumber
        Nr             [1/cm] 
        1                0.00
        2                0.00
        3                0.00
        4                0.00
        5                0.00
        6                0.00

     Vibration        Wavenumber
        Nr             [1/cm] 
        1              474.94
        2              607.67
        3              623.34
        4              730.41
        5              853.54
        6             1369.92

 FREQUENCIES * CALCULATION OF NORMAL MODES FOR MP2


 Atomic Coordinates

  Nr  Atom  Charge       X              Y              Z

   1   O     8.00   -0.173494684   -0.000593823    0.270578082
   2   O     8.00    1.305388984    2.212771848    0.284188626
   3   O     8.00    1.320623624   -2.203703934    0.284200615
   4   N     7.00   -2.452057379   -0.008453776    0.249753069

 Frequencies dumped to record   5400.2

 Gradient norm at reference geometry: 0.10672D-03
 
 Molecule is not in standard orientation!
 Symmetry information for normal modes not available!

 Normal Modes

                              1 A         2 A         3 A         4 A         5 A  
 Wavenumbers [cm-1]          474.94      607.67      623.34      730.41      853.54
 Intensities [km/mol]         36.34       23.78        9.41      162.05      198.56
 Intensities [relative]       10.92        7.15        2.83       48.71       59.68
           GX1             -0.02770    -0.00006    -0.00195     0.13559    -0.00074
           GY1             -0.00010     0.01836    -0.00001     0.00047     0.21406
           GZ1             -0.00025     0.00000     0.21428     0.00123    -0.00000
           GX2              0.04183    -0.12117     0.00059    -0.11556     0.00182
           GY2             -0.16554    -0.07720     0.00000    -0.05869    -0.06383
           GZ2              0.00038    -0.00111    -0.06484    -0.00106     0.00001
           GX3              0.04068     0.12170     0.00059    -0.11597    -0.00138
           GY3              0.16582    -0.07636     0.00000     0.05789    -0.06384
           GZ3              0.00038     0.00111    -0.06484    -0.00106    -0.00001
           GX4             -0.06261    -0.00053     0.00089     0.10958     0.00034
           GY4             -0.00022     0.15443     0.00000     0.00038    -0.09869
           GZ4             -0.00057    -0.00000    -0.09663     0.00101     0.00000

                              6 A  
 Wavenumbers [cm-1]         1369.92
 Intensities [km/mol]        332.68
 Intensities [relative]      100.00
           GX1             -0.16498
           GY1             -0.00057
           GZ1             -0.00151
           GX2             -0.00425
           GY2             -0.02011
           GZ2             -0.00004
           GX3             -0.00439
           GY3              0.02008
           GZ3             -0.00004
           GX4              0.19833
           GY4              0.00068
           GZ4              0.00181


 Normal Modes of low/zero frequencies

                                  1           2           3           4           5
 Wavenumbers [cm-1]            0.00        0.00        0.00        0.00        0.00
 Intensities [km/mol]          0.00        0.00        0.00        0.00        0.00
 Intensities [relative]        0.00        0.00        0.00        0.00        0.00
           GX1              0.02338     0.06387     0.01487     0.01425     0.04914
           GY1             -0.07763    -0.00125     0.05997     0.05241     0.05683
           GZ1              0.08710    -0.05746     0.02897     0.06533     0.02256
           GX2             -0.02713    -0.02100     0.03063     0.01816     0.02891
           GY2             -0.04384     0.05583     0.04986     0.05049     0.06936
           GZ2              0.08048    -0.11832    -0.04025    -0.04706     0.18305
           GX3              0.07421     0.14858     0.00112     0.01008     0.06823
           GY3             -0.04349     0.05641     0.04976     0.05047     0.06949
           GZ3              0.03394    -0.02171    -0.11408     0.20761    -0.02302
           GX4              0.02314     0.06400     0.01333     0.01445     0.05002
           GY4             -0.12969    -0.08920     0.07554     0.05538     0.03752
           GZ4              0.13291    -0.03821     0.19166     0.04241    -0.06552

                                  6
 Wavenumbers [cm-1]            0.00
 Intensities [km/mol]          0.00
 Intensities [relative]        0.00
           GX1              0.09307
           GY1             -0.02726
           GZ1             -0.00903
           GX2              0.17150
           GY2             -0.07958
           GZ2             -0.02182
           GX3              0.01499
           GY3             -0.08012
           GZ3              0.00519
           GX4              0.09280
           GY4              0.05337
           GZ4             -0.01013


 FREQUENCIES * CALCULATION OF THERMODYNAMICAL PROPERTIES

 Temperature   298.150 [K]  Pressure   1.00000 [atm]
 Atom  1: O         Mass  15.99940
 Atom  2: O         Mass  15.99940
 Atom  3: O         Mass  15.99940
 Atom  4: N         Mass  14.00670

 Molecular Mass:    62.00490 [a.u.]
 Moments of Inertia         295.52873   156.03807   139.49066 [a.u.]
 Point Group C2V   Order of principal axis 2
 Rotational Symmetry factor  2.0
 Rotational Temperatures      0.29308     0.55507     0.62092 [K]
 Rotational Constants         6.10673    11.56586    12.93788 [GHz]

 WARNING: Using the   2 Vibrational Modes  with wavenumbers below 1000 [1/cm]
 may cause significant error at T =     298.150 [K]: Use 0.5*RT instead.

 Vibrational Temperatures [K]    683.33   874.30   896.84  1050.89  1228.05
                                1971.00

 Zero-Point vibrational Energy       27.872 [kJ/Mol]
                                      6.662 [kcal/Mol]

 Electronic Energy at 0 [K]:                      -279.451803 [H]
 Electronic Energy + Zero-Point correction:       -279.441187 [H]
 Electronic Energy at     298.150 [K]:            -279.437634 [H]
 Enthalpy H at            298.150 [K]:            -279.436690 [H]
 Free Enthalpy G at       298.150 [K]:            -279.466304 [H]

 Partition Function  Z                 log10(Z)          ln(Z)
 Electronic      0.100000D+01          0.000000          0.000000
 Translation     0.191915D+08          7.283109         16.769979
 Rotation        0.143555D+05          4.157017          9.571885
 Vibration       0.129640D+01          0.112740          0.259593
 Vibration    1  0.111244D+01          0.046277          0.106557
 Vibration    2  0.105627D+01          0.023773          0.054740
 Total           0.357163D+12         11.552866         26.341864

                       H(T)-H(0)              Cv                 S
                       [kJ/Mol]          [J/Mol K]          [J/Mol K] 
 Electronic               0.000              0.000              0.000
 Translation              3.718             12.472            160.220
 Rotation                 3.718             12.472             92.057
 Vibration                1.891             19.915              8.502
 Vibration  1             3.480              5.463              3.029
 Vibration  2             4.044              4.249              1.827
 Volume (RT)              2.479              0.000              0.000
 Total                   11.807             44.859            260.780

 Thermal energies including ZPE:

 H(T)-E(0)               39.679 kJ/Mol
 U(T)-E(0)               37.200 kJ/Mol

                       H(T)-H(0)              Cv                 S
                       [kcal/Mol]        [cal/Mol K]        [cal/Mol K] 
 Electronic               0.000              0.000              0.000
 Translation              0.889              2.981             38.294
 Rotation                 0.889              2.981             22.002
 Vibration                0.452              4.760              2.032
 Vibration  1             0.832              1.306              0.724
 Vibration  2             0.966              1.016              0.437
 Volume (RT)              0.592              0.000              0.000
 Total                    2.822             10.722             62.328

 Thermal energies including ZPE:

 H(T)-E(0)                9.484 kcal/Mol
 U(T)-E(0)                8.891 kcal/Mol
   --><cml:molecule>
    <cml:symmetry pointGroup="C1"/>
    <cml:atomArray>
     <cml:atom id="a1" elementType="O" x3="-0.720025494518891E-05" y3="-0.133579883512403"
       z3="-0.310866135924093E-07"/>
     <cml:atom id="a2" elementType="O" x3="0.217874543791042E-05" y3="0.653080112583341"
       z3="1.16855620712569"/>
     <cml:atom id="a3" elementType="O" x3="0.217874555752914E-05" y3="0.653080375728352"
       z3="-1.16855603398246"/>
     <cml:atom id="a4" elementType="N" x3="0.32471972369794E-05" y3="-1.33940086732962"
       z3="-0.16226666809115E-06"/>
    </cml:atomArray>
    <cml:bondArray>
     <cml:bond atomRefs2="a1 a2"/>
     <cml:bond atomRefs2="a1 a3"/>
     <cml:bond atomRefs2="a1 a4"/>
    </cml:bondArray>
   </cml:molecule><!--
 Frequency information read from record  5400.2
   -->
   <vibrations>
    <normalCoordinate wavenumber="1369.92" units="inverseCentimetre">
     -0.16497676 -0.00056913 -0.00150737
     -0.00425438 -0.02011004 -0.00003963
     -0.00439312  0.02008029 -0.00003974
      0.19832537  0.00068408  0.00181248
    </normalCoordinate>
    <normalCoordinate wavenumber="853.54" units="inverseCentimetre">
     -0.00073824  0.21405934 -0.00000058
      0.00182352 -0.06382693  0.00001394
     -0.00138345 -0.06383780 -0.00001360
      0.00034059 -0.09868575  0.00000027
    </normalCoordinate>
    <normalCoordinate wavenumber="730.41" units="inverseCentimetre">
      0.13559408  0.00046736  0.00123359
     -0.11556271 -0.05868994 -0.00105709
     -0.11596587  0.05789209 -0.00105742
      0.10958287  0.00037750  0.00100625
    </normalCoordinate>
    <normalCoordinate wavenumber="623.34" units="inverseCentimetre">
     -0.00195380 -0.00000617  0.21427543
      0.00058881  0.00000335 -0.06483823
      0.00058854  0.00000053 -0.06483823
      0.00088692  0.00000262 -0.09663466
    </normalCoordinate>
    <normalCoordinate wavenumber="607.67" units="inverseCentimetre">
     -0.00006281  0.01835818  0.00000020
     -0.12117161 -0.07719718 -0.00111080
      0.12170028 -0.07635910  0.00111106
     -0.00053214  0.15443241 -0.00000052
    </normalCoordinate>
    <normalCoordinate wavenumber="474.94" units="inverseCentimetre">
     -0.02769643 -0.00009555 -0.00024936
      0.04182562 -0.16553556  0.00037669
      0.04068276  0.16582009  0.00037579
     -0.06260992 -0.00021587 -0.00057469
    </normalCoordinate>
    <normalCoordinate wavenumber="0.0" units="inverseCentimetre">
      0.09306997 -0.02725560 -0.00903120
      0.17150180 -0.07958204 -0.02181567
      0.01498785 -0.08012186  0.00519102
      0.09280194  0.05336628 -0.01013312
    </normalCoordinate>
    <normalCoordinate wavenumber="0.0" units="inverseCentimetre">
      0.04914361  0.05682687  0.02255650
      0.02891449  0.06935625  0.18305139
      0.06823314  0.06949132 -0.02301762
      0.05001521  0.03751567 -0.06552086
    </normalCoordinate>
    <normalCoordinate wavenumber="0.0" units="inverseCentimetre">
      0.01424997  0.05241189  0.06532515
      0.01815579  0.05049325 -0.04705918
      0.01008361  0.05046610  0.20760671
      0.01444916  0.05537637  0.04241137
    </normalCoordinate>
    <normalCoordinate wavenumber="0.0" units="inverseCentimetre">
      0.01486853  0.05997106  0.02896752
      0.03063114  0.04986474 -0.04024998
      0.00112042  0.04976274 -0.11408492
      0.01332793  0.07553979  0.19165505
    </normalCoordinate>
    <normalCoordinate wavenumber="0.0" units="inverseCentimetre">
      0.06387334 -0.00125483 -0.05746218
     -0.02100027  0.05582862 -0.11832348
      0.14858116  0.05641386 -0.02171450
      0.06400080 -0.08920193 -0.03821465
    </normalCoordinate>
    <normalCoordinate wavenumber="0.0" units="inverseCentimetre">
      0.02338259 -0.07762796  0.08709636
     -0.02713053 -0.04383640  0.08048008
      0.07420893 -0.04348696  0.03393611
      0.02314347 -0.12969320  0.13291017
    </normalCoordinate>
   </vibrations>

 Recomputing wavefunction at initial geometry
   <jobstep command="HF-SCF" commandset="SCFPRO">
    <!--
    --><cml:molecule>
     <cml:symmetry pointGroup="C1"/>
     <cml:atomArray>
      <cml:atom id="a1" elementType="O" x3="-0.918094327447519E-01" y3="-0.314237449289655E-03"
        z3="0.143183754543242"/>
      <cml:atom id="a2" elementType="O" x3="0.690782101473612" y3="1.17094843486669"
        z3="0.150386144367222"/>
      <cml:atom id="a3" elementType="O" x3="0.698843926019618" y3="-1.16614990163573"
        z3="0.150392488566171"/>
      <cml:atom id="a4" elementType="N" x3="-1.29757288474848" y3="-0.44735457816766E-02"
        z3="0.132163632523364"/>
     </cml:atomArray>
     <cml:bondArray>
      <cml:bond atomRefs2="a1 a2"/>
      <cml:bond atomRefs2="a1 a3"/>
      <cml:bond atomRefs2="a1 a4"/>
     </cml:bondArray>
    </cml:molecule><!--
    --><property name="Energy" method="RHF" principal="true" stateSymmetry="1" stateNumber="1"
      value="-278.69528502372"/><!--
    --><property name="Dipole moment" method="RHF" principal="true" stateSymmetry="1"
      stateNumber="1"
      value="-0.692131083795073 -0.239219297158094E-02 -0.278517030926007"/><!--
    -->
    <time start="16:10:40" end="16:10:41" cpu="2.85" system="0.34" real="3.22"/>
    <storage units="megabyte" memory="257.84" sf="31.5" df="242.51" eaf="175.21" ga="0.0"/>
   </jobstep>
   <jobstep command="MP2" commandset="CCSD">
    <!--
    --><property name="energy" method="Reference" stateSymmetry="1" stateNumber="1"
      value="-278.695285023719"/>
       <property name="singlet pair energy" method="MP2" stateSymmetry="1" stateNumber="1"
      value="-0.447132361303457"/>
       <property name="triplet pair energy" method="MP2" stateSymmetry="1" stateNumber="1"
      value="-0.309385180211933"/>
       <property name="correlation energy" method="MP2" stateSymmetry="1" stateNumber="1"
      value="-0.75651754151539"/>
       <property name="total energy" method="MP2" principal="true" stateSymmetry="1"
      stateNumber="1" value="-279.451802565235"/><!--
    --><property name="Dipole moment" method="!MP2" principal="true" stateSymmetry="1"
      stateNumber="1"
      value="-0.461808709935583 -0.159777804740152E-02 -0.276409744374776"/><!--
    -->
    <time start="16:10:41" end="16:10:43" cpu="1.26" system="0.16" real="1.42"/>
    <storage units="megabyte" memory="257.84" sf="31.5" df="242.51" eaf="175.21" ga="0.0"/>
   </jobstep>


 **********************************************************************************************************************************
 DATASETS  * FILE   NREC   LENGTH (MB)   RECORD NAMES
              1      20       28.77       500      610      700      900      950      970     1000      129      960     1100   
                                          VAR    BASINP    GEOM    SYMINP    ZMAT    AOBASIS   BASIS     P2S    ABASIS      S 
                                         1400     1410     1200     1210     1080     1600     1650     1700     1380     5200   
                                           T        V       H0       H01     AOSYM     SMH    MOLCAS    OPER     JKOP      MP2  

              2      10        0.95       700     1000      520     2100     4100     4101     9001     5300     5400     5450   
                                         GEOM     BASIS   MCVARS     RHF     CPHF     CPHF    DEN_MP2   HESS     FREQ     NMOD   

 PROGRAMS   *        TOTAL      FREQ      OPTG       MP2        HF       INT
 CPU TIMES  *       172.19    110.62     58.64      1.28      0.42      0.73
 REAL TIME  *       206.84 SEC
 DISK USED  *       417.72 MB      
 SF USED    *        31.50 MB      
 GA USED    *         0.00 MB       (max)       0.00 MB       (current)
 **********************************************************************************************************************************
   <time start="16:08:27" end="16:10:43" cpu="110.62" system="16.69" real="135.51"/>
   <storage units="megabyte" memory="257.84" sf="31.5" df="242.51" eaf="175.21" ga="0.0"/>
  </jobstep><!--

 MP2/aug-cc-pVDZ energy=   -279.451802565235

       OPTG(MP2)        MP2             HF-SCF  
   -279.45180251   -278.49466579   -277.78615074
 **********************************************************************************************************************************
 Variable memory released
  --><stm:metadataList>
   <stm:metadata name="dc:date" content="2016-08-12T16:10:43-07:00"/>
   <stm:metadata name="dc:creator" content="sstraight"/>
   <stm:metadata name="cmlm:insilico" content="Molpro"/>
  </stm:metadataList><!--
  --><platform>
   <version major="2015" minor="1" SHA="41aa48e1468dac041f2eaabdf410f3ce2ee7f8bf"
     integer_bits="64" parallelism="mpp">
    2015.1
    <date year="2016" month="8" day="12" hour="16" minute="7" second="17">
     2016-08-12T16:07:17
    </date>
   </version>
   <licence id="vbabin"/>
   <parallel processes="8" nodes="1" all_processes="8" openmp="1"/>
   <machine hostname="" architecture="">
     64 bit mpp version
    <sysinfo name="cpu MHz" content="2668.000"/>
    <sysinfo name="MemTotal" content="24737080 kB"/>
    <sysinfo name="vendor_id" content="GenuineIntel"/>
    <sysinfo name="cpu family" content="6"/>
    <sysinfo name="model name" content="Intel(R) Xeon(R) CPU           X5650  @ 2.67GHz"/>
    <sysinfo name="flags"
      content="fpu vme de pse tsc msr pae mce cx8 apic sep mtrr pge mca cmov pat pse36 clflush dts acpi mmx fxsr sse sse2 ss ht tm pbe syscall nx pdpe1gb rdtscp lm constant_tsc arch_perfmon pebs bts rep_good nopl xtopology nonstop_tsc aperfmperf pni dtes64 monitor ds_cpl vmx smx est tm2 ssse3 cx16 xtpr pdcm pcid dca sse4_1 sse4_2 popcnt lahf_lm ida arat epb dtherm tpr_shadow vnmi flexpriority ept vpid"/>
    <sysinfo name="MemTotal" content="24737080 kB"/>
    <sysinfo name="cache size" content="12288 KB"/>
    <sysinfo name="ncpu" content="24"/>
   </machine>
  </platform><!--
  -->
  <input>
   <p> memory, 32,M </p>
   <p> geomtyp=xyz </p>
   <p> geometry={ </p>
   <p> 4 </p>
   <p> nitrate anion geometry taken from hydronium </p>
   <p>  O   -0.0000348200   -0.0000015400   -0.0823037200 </p>
   <p>  O    0.4651268700    0.8117667800    0.2194445200 </p>
   <p>  O    0.4707170800   -0.8085316900    0.2194487400 </p>
   <p>  N   -0.9355654200   -0.0032228000    0.2195364800 </p>
   <p> } </p>
   <p> basis </p>
   <p> default=avdz </p>
   <p> end </p>
   <p> CHARGE = -1, SPIN = 0 </p>
   <p> hf </p>
   <p> mp2 </p>
   <p> e_H2O_b3lyp_avqz = energy </p>
   <p> optg;coord,3n </p>
   <p> {frequencies </p>
   <p> thermo,sym=c2v </p>
   <p> print,thermo} </p>
  </input>
  <!--
 --></job><!--
--></molpro>
