
 Primary working directories    : /home/sstraight/tmp
 Secondary working directories  : /home/sstraight/tmp
 Wavefunction directory         : /home/sstraight/wfu/
 Main file repository           : /home/sstraight/tmp/

 SHA1      : 41aa48e1468dac041f2eaabdf410f3ce2ee7f8bf
 NAME      : 2015.1.0
 ARCHNAME  : linux/x86_64
 FC        : /opt/intel/composer_xe_2015.1.133/bin/intel64/ifort
 BLASLIB   : -Wl,-_start-group /opt/intel/mkl/lib/intel64/libmkl_intel_ilp64.a /opt/intel/mkl/lib/intel64/libmkl_sequential.a /opt/intel/mkl/lib/intel64/libmkl_core.a -Wl,-_end-group
 id        : vbabin

 Nodes     nprocs
 mill         8

 Using customized tuning parameters: mindgm=1; mindgv=20; mindgc=4; mindgr=1; noblas=0; minvec=7
 default implementation of scratch files=sf  

 memory, 32,M
 
 geomtyp=xyz
 geometry={
 3
 linear triatomic CO2
  O   1.000000   0.0000000   0.000
  O  -1.000000   0.0000000   0.000
  C   0.000000   0.0000000   0.000
 }
 
 basis
 default=avdz
 end
 
 CHARGE = 0, SPIN = 0
 hf
 mp2
 
 e_H2O_b3lyp_avqz = energy
 optg;coord,3n
 {frequencies
 thermo,sym=c2v
 print,thermo}

 Variables initialized (889), CPU time= 0.09 sec
 Commands  initialized (702), CPU time= 0.04 sec, 572 directives.
 Default parameters read. Elapsed time= 0.57 sec

 Checking input...
 Passed
1


                                         ***  PROGRAM SYSTEM MOLPRO  ***
                                       Copyright, TTI GmbH Stuttgart, 2015
                                    Version 2015.1 linked Nov 13 2015 17:13:29


 **********************************************************************************************************************************
 LABEL *                                                                                 
  64 bit mpp version                                                                     DATE: 12-Aug-16          TIME: 14:31:45  
 **********************************************************************************************************************************

 SHA1:             41aa48e1468dac041f2eaabdf410f3ce2ee7f8bf
 **********************************************************************************************************************************
 SETTING GEOMTYP        =    XYZ

 Variable memory set to   32000000 words,  buffer space   230000 words

 SETTING BASIS          =    AVDZ
 SETTING CHARGE         =     0.00000000D+00                                  
 SETTING SPIN           =     0.00000000D+00                                  


 Recomputing integrals since basis changed


 Using spherical harmonics

 Library entry O      S aug-cc-pVDZ          selected for orbital group  1
 Library entry O      P aug-cc-pVDZ          selected for orbital group  1
 Library entry O      D aug-cc-pVDZ          selected for orbital group  1
 Library entry C      S aug-cc-pVDZ          selected for orbital group  2
 Library entry C      P aug-cc-pVDZ          selected for orbital group  2
 Library entry C      D aug-cc-pVDZ          selected for orbital group  2

1PROGRAM * SEWARD (Integral evaluation for generally contracted gaussian basis sets)     Author: Roland Lindh, 1990

 Geometry written to block  1 of record 700


 Point group  D2h 



 ATOMIC COORDINATES

 NR  ATOM    CHARGE       X              Y              Z

   1  O       8.00    1.889726125    0.000000000    0.000000000
   2  O       8.00   -1.889726125    0.000000000    0.000000000
   3  C       6.00    0.000000000    0.000000000    0.000000000

 Bond lengths in Bohr (Angstrom)

 1-3  1.889726125  2-3  1.889726125
     ( 1.000000000)     ( 1.000000000)

 Bond angles

  1-3-2  180.00000000

 NUCLEAR CHARGE:                   22
 NUMBER OF PRIMITIVE AOS:         111
 NUMBER OF SYMMETRY AOS:          105
 NUMBER OF CONTRACTIONS:           69   (  19Ag  +  14B3u +   8B2u +   7B1g +   8B1u +   7B2g +   4B3g +   2Au  )
 NUMBER OF CORE ORBITALS:           3   (   2Ag  +   1B3u +   0B2u +   0B1g +   0B1u +   0B2g +   0B3g +   0Au  )
 NUMBER OF VALENCE ORBITALS:       12   (   3Ag  +   3B3u +   2B2u +   1B1g +   2B1u +   1B2g +   0B3g +   0Au  )


 NUCLEAR REPULSION ENERGY   67.73468300

 Eigenvalues of metric

         1 0.124E-02 0.291E-02 0.824E-02 0.245E-01 0.424E-01 0.143E+00 0.208E+00 0.260E+00
         2 0.161E-02 0.112E-01 0.218E-01 0.252E-01 0.729E-01 0.130E+00 0.372E+00 0.449E+00
         3 0.233E-01 0.554E-01 0.126E+00 0.252E+00 0.605E+00 0.121E+01 0.196E+01 0.492E+01
         4 0.144E-01 0.112E+00 0.157E+00 0.316E+00 0.546E+00 0.164E+01 0.307E+01
         5 0.233E-01 0.554E-01 0.126E+00 0.252E+00 0.605E+00 0.121E+01 0.196E+01 0.492E+01
         6 0.144E-01 0.112E+00 0.157E+00 0.316E+00 0.546E+00 0.164E+01 0.307E+01
         7 0.208E+00 0.524E+00 0.852E+00 0.251E+01
         8 0.449E+00 0.146E+01


 Contracted 2-electron integrals neglected if value below      1.0D-11
 AO integral compression algorithm  1   Integral accuracy      1.0D-11

     4.719 MB (compressed) written to integral file ( 76.7%)

     Node minimum: 0.524 MB, node maximum: 0.786 MB


 NUMBER OF SORTED TWO-ELECTRON INTEGRALS:      48653.     BUFFER LENGTH:  32768
 NUMBER OF SEGMENTS:   1  SEGMENT LENGTH:      48653      RECORD LENGTH: 524288

 Memory used in sort:       0.61 MW

 SORT1 READ      662951. AND WROTE       48601. INTEGRALS IN      1 RECORDS. CPU TIME:     0.08 SEC, REAL TIME:     0.13 SEC
 SORT2 READ      407920. AND WROTE      408664. INTEGRALS IN     16 RECORDS. CPU TIME:     0.01 SEC, REAL TIME:     0.02 SEC

 Node minimum:       47117.  Node maximum:       55990. integrals

 OPERATOR DM      FOR CENTER  0  COORDINATES:    0.000000    0.000000    0.000000


 **********************************************************************************************************************************
 DATASETS  * FILE   NREC   LENGTH (MB)   RECORD NAMES
              1      18       16.45       500      610      700      900      950      970     1000      129      960     1100   
                                          VAR    BASINP    GEOM    SYMINP    ZMAT    AOBASIS   BASIS     P2S    ABASIS      S 
                                         1400     1410     1200     1210     1080     1600     1650     1700   
                                           T        V       H0       H01     AOSYM     SMH    MOLCAS    OPER   

 PROGRAMS   *        TOTAL       INT
 CPU TIMES  *         0.87      0.36
 REAL TIME  *         2.04 SEC
 DISK USED  *        36.37 MB      
 GA USED    *         0.00 MB       (max)       0.00 MB       (current)
 **********************************************************************************************************************************

1PROGRAM * RHF-SCF (CLOSED SHELL)       Authors: W. Meyer, H.-J. Werner


 NUMBER OF ELECTRONS:      11+   11-
 CONVERGENCE THRESHOLDS:    1.00E-06 (Density)    1.00E-07 (Energy)
 MAX. NUMBER OF ITERATIONS:       60
 INTERPOLATION TYPE:            DIIS
 INTERPOLATION STEPS:              2 (START)      1 (STEP)
 LEVEL SHIFTS:                  0.00 (CLOSED)  0.00 (OPEN) 



 Orbital guess generated from atomic densities. Full valence occupancy:    5   4   2   1   2   1   0   0


 Molecular orbital dump at record        2100.2

 Initial occupancy:   4   3   1   1   1   1   0   0

 ITERATION    DDIFF          GRAD             ENERGY        2-EL.EN.            DIPOLE MOMENTS         DIIS   ORB.
    1      0.000D+00      0.000D+00      -187.48763641    271.404528    0.00000    0.00000    0.00000    0    start
    2      0.000D+00      0.230D-01      -187.51816077    269.469988    0.00000    0.00000    0.00000    1    diag
    3      0.414D-01      0.115D-01      -187.52803740    270.272111    0.00000    0.00000    0.00000    2    diag
    4      0.139D-01      0.936D-03      -187.52816017    270.170554    0.00000    0.00000    0.00000    3    diag
    5      0.176D-02      0.145D-03      -187.52816314    270.188769    0.00000    0.00000    0.00000    4    diag
    6      0.315D-03      0.313D-04      -187.52816334    270.184961    0.00000    0.00000    0.00000    5    diag
    7      0.678D-04      0.356D-05      -187.52816334    270.184942    0.00000    0.00000    0.00000    6    diag
    8      0.661D-05      0.358D-06      -187.52816334    270.184950    0.00000    0.00000    0.00000    7    diag
    9      0.790D-06      0.616D-07      -187.52816334    270.184950    0.00000    0.00000    0.00000    0    orth

 Final occupancy:   4   3   1   1   1   1   0   0

 !RHF STATE 1.1 Energy               -187.528163344741
 Nuclear energy                        67.73468300
 One-electron energy                 -390.35532155
 Two-electron energy                  135.09247520
 Virial quotient                       -0.98881633
 !RHF STATE 1.1 Dipole moment           0.00000000     0.00000000     0.00000000
 Dipole moment /Debye                   0.00000000     0.00000000     0.00000000

 Orbital energies:

         1.1          2.1          3.1          4.1          5.1          6.1
    -20.615598   -11.394424    -1.627844    -0.778979     0.059395     0.202102

         1.2          2.2          3.2          4.2          5.2
    -20.615647    -1.582310    -0.766232     0.092021     0.274851

         1.3          2.3          3.3
     -0.799254     0.081690     0.278589

         1.4          2.4          3.4
     -0.552821     0.210888     0.696787

         1.5          2.5          3.5
     -0.799254     0.081690     0.278589

         1.6          2.6          3.6
     -0.552821     0.210888     0.696787

         1.7          2.7
      0.406179     1.172631

         1.8          2.8
      0.999077     3.513323

 HOMO      1.4    -0.552821 =     -15.0430eV
 LUMO      5.1     0.059395 =       1.6162eV
 LUMO-HOMO         0.612215 =      16.6592eV


 **********************************************************************************************************************************
 DATASETS  * FILE   NREC   LENGTH (MB)   RECORD NAMES
              1      18       16.46       500      610      700      900      950      970     1000      129      960     1100   
                                          VAR    BASINP    GEOM    SYMINP    ZMAT    AOBASIS   BASIS     P2S    ABASIS      S 
                                         1400     1410     1200     1210     1080     1600     1650     1700   
                                           T        V       H0       H01     AOSYM     SMH    MOLCAS    OPER   

              2       4        0.42       700     1000      520     2100   
                                         GEOM     BASIS   MCVARS     RHF  

 PROGRAMS   *        TOTAL        HF       INT
 CPU TIMES  *         0.93      0.06      0.36
 REAL TIME  *         2.25 SEC
 DISK USED  *       172.25 MB      
 SF USED    *         0.00 MB      
 GA USED    *         0.00 MB       (max)       0.00 MB       (current)
 **********************************************************************************************************************************


1PROGRAM * MP2 (Closed-shell)     Authors: C. Hampel, H.-J. Werner, 1991, M. Deegan, P.J. Knowles, 1992


 Convergence thresholds:  THRVAR = 1.00D-12  THRDEN = 1.00D-08

 Number of core orbitals:           3 (   2   1   0   0   0   0   0   0 )
 Number of closed-shell orbitals:   8 (   2   2   1   1   1   1   0   0 )
 Number of external orbitals:      58 (  15  11   7   6   7   6   4   2 )

 Molecular orbitals read from record     2100.2  Type=RHF/CANONICAL (state 1.1)

 Number of N-1 electron functions:               8
 Number of N-2 electron functions:              36
 Number of singly external CSFs:                78
 Number of doubly external CSFs:             14488
 Total number of CSFs:                       14567

 Length of J-op  integral file:               0.00 MB
 Length of K-op  integral file:               0.06 MB

 Integral transformation finished. Total CPU:   0.03 sec, npass=  1  Memory used:   0.09 MW

 Memory needed for MP2:                      0.00 MW

 SCS-MP2 correlation energy:           -0.436952259094   (PS=  1.200000  PT=  0.333333)
 SCS-MP2 total energy:               -187.965115603835


  Reference energy                   -187.528163344741
  MP2 singlet pair energy              -0.265186782304
  MP2 triplet pair energy              -0.190813050529
  MP2 correlation energy               -0.455999832833

 !MP2 total energy                   -187.984163177574

 KEXT needed  1 integral passes. Memory used:   0.09 MW  CPU time:      0.01 sec


 Starting Coupled-perturbed Hartree-Fock, convergence threshold= 1.0D-06

 ITER   MIC  DIIS      VAR         VARC       CPU
   1     0     1    0.36D-01    0.17D-02     0.00
   2     4     2    0.28D-03    0.17D-03     0.00
   3     3     3    0.13D-04    0.32D-05     0.00
   4     2     4    0.48D-06    0.23D-07     0.00

 CPHF convergence reached in  4 macroiterations and    9 microiterations.   Accuracy: 4.8360D-07

 CPHF solution written to record  4101.2

 Dipole moments (unrelaxed):            0.00000000     0.00000000     0.00000000
 Orbital relaxation contribution:       0.00000000     0.00000000     0.00000000
 !!MP2 STATE 1.1 Dipole moment          0.00000000     0.00000000     0.00000000
 Dipole moment /Debye                   0.00000000     0.00000000     0.00000000
 
 CPU-time for density and lagrangian:                  0.00 sec
 CPU-time for coupled-perturbed hartree-fock:          0.00 sec

 MP2 Gradient info saved on record         5200.1


 **********************************************************************************************************************************
 DATASETS  * FILE   NREC   LENGTH (MB)   RECORD NAMES
              1      20       16.95       500      610      700      900      950      970     1000      129      960     1100   
                                          VAR    BASINP    GEOM    SYMINP    ZMAT    AOBASIS   BASIS     P2S    ABASIS      S 
                                         1400     1410     1200     1210     1080     1600     1650     1700     1380     5200   
                                           T        V       H0       H01     AOSYM     SMH    MOLCAS    OPER     JKOP      MP2  

              2       6        0.49       700     1000      520     2100     4100     4101   
                                         GEOM     BASIS   MCVARS     RHF     CPHF     CPHF   

 PROGRAMS   *        TOTAL       MP2        HF       INT
 CPU TIMES  *         1.09      0.15      0.06      0.36
 REAL TIME  *         2.55 SEC
 DISK USED  *       176.31 MB      
 SF USED    *         1.25 MB      
 GA USED    *         0.00 MB       (max)       0.00 MB       (current)
 **********************************************************************************************************************************
 SETTING E_H2O_B3LYP_AVQZ                =    -187.98416318  AU                              


 PROGRAM * OPT (Geometry optimization)     Authors: F. Eckert and H.-J. Werner


 BFGS update of hessian

 *** Long output written to logfile /home/sstraight/projects/h3o/1B_training_set/training_set_builder/test_case_co2/output.log ***


 Geometry optimization using default procedure for command MP2

 Geometry written to block  1 of record 700

 Making model hessian for cartesian coordinates

 Entering Rational Function Geometry Optimization

 ITER.   ENERGY(OLD)    ENERGY(NEW)      DE          GRADMAX     GRADNORM    GRADRMS     STEPMAX     STEPLEN     STEPRMS   CPU-time
   1  -187.98416318  -188.14975461    -0.16559144  0.95017153  0.95017153  0.23754288  0.30000000  0.30000000  0.17320508      1.10
   2  -188.14975461  -188.16591801    -0.01616339  0.23750925  0.23750925  0.05937731  0.09900118  0.09900118  0.05715836      2.13
   3  -188.16591801  -188.16954705    -0.00362904  0.09483709  0.09483709  0.02370927  0.06552555  0.06552555  0.03783120      3.14
   4  -188.16954705  -188.16969883    -0.00015178  0.01804553  0.01804553  0.00451138  0.01539444  0.01539444  0.00888798      4.16
   5  -188.16969883  -188.16970035    -0.00000153  0.00177947  0.00177947  0.00044487  0.00168411  0.00168411  0.00097232      5.17
   6  -188.16970035  -188.16970037    -0.00000001  0.00003846  0.00003846  0.00000961  0.00003720  0.00003720  0.00002148      6.21

 END OF GEOMETRY OPTIMIZATION.

 Current geometry (xyz format, in Angstrom)

    3
 MP2/AVDZ  ENERGY=-188.16970037
 O          1.1802232960        0.0000000000        0.0000000000
 O         -1.1802232960        0.0000000000        0.0000000000
 C          0.0000000000        0.0000000000        0.0000000000

 **********************************************************************************************************************************

 Geometry written to block  1 of record 700


 **********************************************************************************************************************************
 DATASETS  * FILE   NREC   LENGTH (MB)   RECORD NAMES
              1      20       16.95       500      610      700      900      950      970     1000      129      960     1100   
                                          VAR    BASINP    GEOM    SYMINP    ZMAT    AOBASIS   BASIS     P2S    ABASIS      S 
                                         1400     1410     1200     1210     1080     1600     1650     1700     1380     5200   
                                           T        V       H0       H01     AOSYM     SMH    MOLCAS    OPER     JKOP      MP2  

              2       7        0.49       700     1000      520     2100     4100     4101     9001   
                                         GEOM     BASIS   MCVARS     RHF     CPHF     CPHF    DEN_MP2    

 PROGRAMS   *        TOTAL      OPTG       MP2        HF       INT
 CPU TIMES  *         7.31      6.22      0.15      0.06      0.36
 REAL TIME  *        10.26 SEC
 DISK USED  *       176.35 MB      
 SF USED    *         1.25 MB      
 GA USED    *         0.00 MB       (max)       0.00 MB       (current)
 **********************************************************************************************************************************


 PROGRAM * HESSIAN

 Computing numerical hessian using default procedure for command MP2

 Symmetry elements for unique displacements: X  Y  Z  

 Using no symmetry in wavefunction calculations

 Running default procedure: HF-SCF000  MP2
 

 Numerically approximating hessian using central gradient differences

 Task list generated. Total number of displacements:      7

    5 tasks completed, CPU=9s Elapsed=9s

 Numerical MP2 hessian completed. CPU-time:    12.59 sec, Elapsed:    12.74 sec

 MP2 hessian saved to record  5300.2

 FREQUENCIES * CALCULATION OF HARMONIC VIBRATIONAL SPECTRA FOR MP2


 Permanent Dipole Moment [debye]
   1-  3    0.000000    0.000000    0.000000

 Dipole Moment Norm    0.0000000 [debye]

 Dipole Moment Derivatives [debye/ang]
                   1             2             3             4             5             6             7             8
         1    -5.4132000     0.0000000     0.0000000    -5.4132000     0.0000000     0.0000000    10.8264633     0.0000000
         2    -0.0000000    -1.0525368     0.0000000     0.0000000    -1.0525368     0.0000000     0.0000000     2.1050063
         3     0.0000000     0.0000000    -1.0525367    -0.0000000     0.0000000    -1.0525367     0.0000000     0.0000000
                   9
         1     0.0000000
         2     0.0000000
         3     2.1050060

 Projecting out rotations and translations

   Low Vibration      Wavenumber
        Nr             [1/cm] 
        1                0.00
        2                0.00
        3                0.00
        4                0.00
        5                0.00

     Vibration        Wavenumber
        Nr             [1/cm] 
        1              655.27
        2              655.27
        3             1305.32
        4             2378.55

 FREQUENCIES * CALCULATION OF NORMAL MODES FOR MP2


 Atomic Coordinates

  Nr  Atom  Charge       X              Y              Z

   1   O     8.00    2.230298795    0.000000000    0.000000000
   2   O     8.00   -2.230298795    0.000000000    0.000000000
   3   C     6.00    0.000000000    0.000000000    0.000000000

 Frequencies dumped to record   5400.2

 Gradient norm at reference geometry: 0.38457D-04

 Normal Modes

                              1 B3u       2 B2u       3 Ag        4 B1u
 Wavenumbers [cm-1]          655.27      655.27     1305.32     2378.55
 Intensities [km/mol]         21.44       21.44        0.00      567.23
 Intensities [relative]        3.78        3.78        0.00      100.00
           GX1             -0.00000     0.00000     0.17678    -0.09235
           GY1             -0.09235    -0.00000    -0.00000    -0.00000
           GZ1              0.00000    -0.09235     0.00000     0.00000
           GX2              0.00000    -0.00000    -0.17678    -0.09235
           GY2             -0.09235    -0.00000    -0.00000     0.00000
           GZ2              0.00000    -0.09235     0.00000     0.00000
           GX3             -0.00000     0.00000     0.00000     0.24604
           GY3              0.24604     0.00000     0.00000     0.00000
           GZ3             -0.00000     0.24604    -0.00000    -0.00000


 Normal Modes of low/zero frequencies

                                  1           2           3           4           5
 Wavenumbers [cm-1]            0.00        0.00        0.00        0.00        0.00
 Intensities [km/mol]          0.00        0.00        0.00        0.00        0.00
 Intensities [relative]        0.00        0.00        0.00        0.00        0.00
           GX1             -0.00143    -0.00293     0.00632     0.03721     0.14590
           GY1              0.23220     0.00346     0.00586    -0.00141     0.00245
           GZ1              0.00105    -0.01402     0.04421     0.22005    -0.05831
           GX2             -0.00143    -0.00293     0.00632     0.03721     0.14590
           GY2             -0.03990     0.22824    -0.00577     0.01599     0.00036
           GZ2             -0.00624     0.00994     0.21789    -0.07900     0.01085
           GX3             -0.00143    -0.00293     0.00632     0.03721     0.14590
           GY3              0.09615     0.11585     0.00004     0.00729     0.00141
           GZ3             -0.00260    -0.00204     0.13105     0.07052    -0.02373


 FREQUENCIES * CALCULATION OF THERMODYNAMICAL PROPERTIES

 Temperature   298.150 [K]  Pressure   1.00000 [atm]
 Atom  1: O         Mass  15.99940
 Atom  2: O         Mass  15.99940
 Atom  3: C         Mass  12.01100

 Molecular Mass:    44.00980 [a.u.]
 Moments of Inertia         159.16948   159.16948     0.00000 [a.u.]
 Point Group C2V   Order of principal axis 0
 Rotational Symmetry factor  1.0
 Rotational Temperature      0.544150 [K]
 Rotational Constant        11.338316 [GHz]

 Vibrational Temperatures [K]    942.78   942.78  1878.05  3422.18

 Zero-Point vibrational Energy       29.873 [kJ/Mol]
                                      7.140 [kcal/Mol]

 Electronic Energy at 0 [K]:                      -188.169700 [H]
 Electronic Energy + Zero-Point correction:       -188.158322 [H]
 Electronic Energy at     298.150 [K]:            -188.155687 [H]
 Enthalpy H at            298.150 [K]:            -188.154743 [H]
 Free Enthalpy G at       298.150 [K]:            -188.179708 [H]

 Partition Function  Z                 log10(Z)          ln(Z)
 Electronic      0.100000D+01          0.000000          0.000000
 Translation     0.114761D+08          7.059794         16.255778
 Rotation        0.547919D+03          2.738716          6.306127
 Vibration       0.109239D+01          0.038378          0.088370
 Total           0.686893D+10          9.836889         22.561904

                       H(T)-H(0)              Cv                 S
                       [kJ/Mol]          [J/Mol K]          [J/Mol K] 
 Electronic               0.000              0.000              0.000
 Translation              3.718             12.472            155.945
 Rotation                 2.479              8.315             60.747
 Vibration                0.722              8.296              3.157
 Volume (RT)              2.479              0.000              0.000
 Total                    9.399             29.082            219.849

 Thermal energies including ZPE:

 H(T)-E(0)               39.272 kJ/Mol
 U(T)-E(0)               36.793 kJ/Mol

                       H(T)-H(0)              Cv                 S
                       [kcal/Mol]        [cal/Mol K]        [cal/Mol K] 
 Electronic               0.000              0.000              0.000
 Translation              0.889              2.981             37.272
 Rotation                 0.592              1.987             14.519
 Vibration                0.173              1.983              0.754
 Volume (RT)              0.592              0.000              0.000
 Total                    2.246              6.951             52.545

 Thermal energies including ZPE:

 H(T)-E(0)                9.386 kcal/Mol
 U(T)-E(0)                8.794 kcal/Mol
 Frequency information read from record  5400.2

 MP2/aug-cc-pVDZ energy=   -188.169700352853

       OPTG(MP2)        MP2             HF-SCF  
   -188.16970037   -187.98416318   -187.52816334
 **********************************************************************************************************************************
 Variable memory released
